32
Lattice="7.600000 0.000000 0.000000 0.000000 7.600000 0.000000 0.000000 0.000000 7.600000" Properties=species:S:1:pos:R:3:Z:I:1:force:R:3 energy=-112.846680723 pbc="T F T"
Al	-0.137928355297	-0.207872618563	-0.383142617441	13	0.285831	1.102500	0.342087
Al	1.81032409228	1.83216149929	-0.349041487194	13	-0.531781	-0.507374	0.760268
Al	1.76765314374	-0.0739186992875	1.63805888833	13	0.214673	-0.268537	-0.872987
Al	-0.0705862384707	1.83594136344	1.74135803364	13	-0.432527	-0.648703	-0.888540
Al	3.77851808992	-0.08718768254	-0.184322840886	13	-0.786786	-0.787018	-0.592147
Al	5.60376647568	1.7966204456	-0.339524957845	13	0.827977	0.011903	0.933051
Al	5.64958910511	-0.111097879544	1.59278860685	13	-0.057748	-0.116005	0.368392
Al	3.73923642303	1.75691235149	1.56225791328	13	-0.405462	0.502901	0.295819
Al	-0.133694948792	3.60466527719	-0.199726343858	13	0.321453	0.568611	-0.623827
Al	1.80671581411	5.60742907265	-0.220887976675	13	0.491209	-0.000825	-0.292478
Al	1.83643832638	3.66840116321	1.62608538619	13	-0.252191	0.029780	0.203327
Al	-0.128900485955	5.71079152702	1.50864658388	13	0.075603	-1.228928	0.856819
Al	3.74191548416	3.74214069898	-0.234720869854	13	-0.284244	-0.231522	0.065340
Al	5.49676195893	5.49574157488	-0.343073045769	13	0.879399	0.567833	0.192350
Al	5.60932221107	3.65837668315	1.6443533483	13	0.150584	0.336827	0.126795
Al	3.69422113341	5.51633664649	1.73502369257	13	0.565849	0.778630	-0.624456
Al	-0.0257794150482	-0.150907197721	3.56981858579	13	-0.889483	-0.053779	-0.134862
Al	1.78494841677	1.64393175144	3.48229322393	13	0.800040	1.667414	0.737430
Al	1.84358852135	-0.0796404551897	5.43439550366	13	0.320799	-0.364305	0.319981
Al	-0.109372048403	1.79177191704	5.33382652214	13	0.346605	0.069785	0.475855
Al	3.68302725089	-0.0889668474374	3.47032743762	13	0.495937	-0.300804	0.429296
Al	5.48314222237	1.74143292938	3.50068337706	13	0.749300	-0.017207	0.099134
Al	5.58504874573	-0.0643186588258	5.45401056605	13	-0.065520	-0.535768	-0.527593
Al	3.75350565999	1.8592439023	5.60933351803	13	-0.599153	-0.683828	-1.616025
Al	-0.070099633835	3.69000329192	3.53601579189	13	0.581757	0.016108	-0.230275
Al	1.83358507677	5.62694317757	3.50428659382	13	-0.475986	-0.480148	0.045748
Al	1.95498218415	3.74523303769	5.49013743127	13	-1.107239	-0.360689	-0.632885
Al	-0.0129297126056	5.51651727699	5.43848466956	13	-0.066736	0.000188	0.377517
Al	3.74491677337	3.70654214627	3.52960712392	13	-0.503766	-0.810402	-0.133136
Al	5.76369317329	5.54798093366	3.65865620919	13	-0.723652	0.655770	-1.290385
Al	5.6168957634	3.61141475058	5.31924722323	13	0.275490	0.352081	0.902329
Al	3.75878795622	5.56174271338	5.29081858293	13	-0.200163	0.735857	0.928032
