[Molden Format]
[Atoms] (AU)
BE   1    4         0.000000000000       0.000000000000       0.000000000000
[GTO]
  1 0
 s    3  1.00
       71.8876000000         0.0644263000
       10.7289000000         0.3660960000
        2.2220500000         0.6959340000
 s    2  1.00
        1.2954800000        -0.4210640000
        0.2688810000         1.2240700000
 p    2  1.00
        1.2954800000         0.2051320000
        0.2688810000         0.8825280000
 s    1  1.00
        0.0773500000         1.0000000000
 p    1  1.00
        0.0773500000         1.0000000000

[MO]
 Sym= A
 Ene=  2.27507522560659893e-05
 Spin= Alpha
 Occup=  4.55015045121319787e-05
  1 -3.34154695439195458e-16
  2  2.05748180974760566e-15
  3  1.05301057780918872e+00
  4  1.76746866206823811e-01
  5  2.11105782286208771e-02
  6 -2.17022679370819013e-15
  7 -1.11740711767130807e+00
  8 -1.87555766758300047e-01
  9 -2.24015891843134633e-02
 Sym= A
 Ene=  2.27507522561295371e-05
 Spin= Alpha
 Occup=  4.55015045122590743e-05
  1  8.25687574829214257e-17
  2 -2.61374477881242875e-15
  3 -1.74263678911342923e-01
  4  9.97789040466031119e-01
  5  3.38475389272663907e-01
  6  2.55486954656205476e-15
  7  1.84920720903154173e-01
  8 -1.05880852409936765e+00
  9 -3.59174748193627491e-01
 Sym= A
 Ene=  2.27507522562205559e-05
 Spin= Alpha
 Occup=  4.55015045124411118e-05
  1 -4.13569992680461211e-17
  2  2.84458887677174782e-15
  3 -3.62943720067441106e-02
  4  3.37185355875762593e-01
  5 -1.01267227795999992e+00
  6 -2.43262465657741457e-15
  7  3.85139432275440063e-02
  8 -3.57805823198847239e-01
  9  1.07460194143079990e+00
 Sym= A
 Ene=  8.92590387839689039e-04
 Spin= Alpha
 Occup=  1.78518077567937808e-03
  1 -1.10138611535348669e-02
  2  1.64126968456915812e+00
  3 -1.57586983605432693e-15
  4  1.29763340786630532e-15
  5  2.12796598680552480e-15
  6 -1.46769202424219825e+00
  7  2.11175897015271402e-15
  8 -1.26535087051492421e-15
  9 -2.37651872722440202e-15
 Sym= A
 Ene=  3.16412360315891927e-02
 Spin= Alpha
 Occup=  6.32824720631783855e-02
  1 -9.58551308261493819e-17
  2  1.68027636840153926e-15
  3 -6.22404032914643524e-01
  4 -3.04924682482742085e-02
  5  3.67762029934537715e-02
  6 -1.44439609188586831e-15
  7 -4.94436558424311390e-01
  8 -2.42231577259187508e-02
  9  2.92149444386569680e-02
 Sym= A
 Ene=  3.16412360315892899e-02
 Spin= Alpha
 Occup=  6.32824720631785798e-02
  1 -7.64255541218897046e-17
  2 -2.60665579282824128e-16
  3  2.74458332211452091e-02
  4 -6.21554001327583650e-01
  5 -5.08567555725905687e-02
  6  3.99758437541736310e-16
  7  2.18029167603585976e-02
  8 -4.93761294977684229e-01
  9 -4.04005081396798249e-02
 Sym= A
 Ene=  3.16412360315895258e-02
 Spin= Alpha
 Occup=  6.32824720631790516e-02
  1  6.07927327130181136e-18
  2  1.47423425606981233e-17
  3  3.91025058696354011e-02
  4 -4.90906582630654328e-02
  5  6.21071784273699912e-01
  6  1.68557402462065740e-17
  7  3.10629549384690701e-02
  8 -3.89975238571472760e-02
  9  4.93378222683922008e-01
 Sym= A
 Ene=  9.04171612428122495e-01
 Spin= Alpha
 Occup=  1.80834322485624499e+00
  1 -2.02637086102694486e-01
  2  2.53958202980016423e-01
  3  1.16198047641528461e-15
  4 -2.30527055021275735e-16
  5 -1.77686971833099837e-16
  6  8.00877973660838793e-01
  7 -1.25695230140535553e-15
  8  4.49614041117352630e-16
  9  1.66815801984328143e-16
 Sym= A
 Ene=  9.99943836832500432e-01
 Spin= Alpha
 Occup=  1.99988767366500086e+00
  1  9.95595370420110592e-01
  2  7.35949862222904372e-02
  3  7.39645854438993635e-16
  4 -2.06126749909436576e-16
  5 -1.12121128860886928e-16
  6 -3.98942908878544902e-02
  7 -9.81747832791506019e-16
  8  1.38774479186540407e-16
  9  7.25562348243921444e-17
