 Molden2AIM, Version 5.0.0 (06/05/2020)           Time: Wed Jul 15 13:09:19 2020
GAUSSIAN            116 MOL ORBITALS    206 PRIMITIVES        6 NUCLEI
  C    1    (CENTRE  1)   1.26134899  0.00000000  0.00000000  CHARGE =  6.0
  C    2    (CENTRE  2)  -1.26134899  0.00000000  0.00000000  CHARGE =  6.0
  H    3    (CENTRE  3)   2.33861405 -1.74406451  0.00000000  CHARGE =  1.0
  H    4    (CENTRE  4)   2.33861405  1.74406451  0.00000000  CHARGE =  1.0
  H    5    (CENTRE  5)  -2.33861405 -1.74406451  0.00000000  CHARGE =  1.0
  H    6    (CENTRE  6)  -2.33861405  1.74406451  0.00000000  CHARGE =  1.0
CENTRE ASSIGNMENTS    1  1  1  1  1  1  1  1  1  1  1  1  1  1  1  1  1  1  1  1
CENTRE ASSIGNMENTS    1  1  1  1  1  1  1  1  1  1  1  1  1  1  1  1  1  1  1  1
CENTRE ASSIGNMENTS    1  1  1  1  1  1  1  1  1  1  1  1  1  1  1  1  1  1  1  1
CENTRE ASSIGNMENTS    1  1  1  1  1  2  2  2  2  2  2  2  2  2  2  2  2  2  2  2
CENTRE ASSIGNMENTS    2  2  2  2  2  2  2  2  2  2  2  2  2  2  2  2  2  2  2  2
CENTRE ASSIGNMENTS    2  2  2  2  2  2  2  2  2  2  2  2  2  2  2  2  2  2  2  2
CENTRE ASSIGNMENTS    2  2  2  2  2  2  2  2  2  2  3  3  3  3  3  3  3  3  3  3
CENTRE ASSIGNMENTS    3  3  3  3  3  3  3  3  3  4  4  4  4  4  4  4  4  4  4  4
CENTRE ASSIGNMENTS    4  4  4  4  4  4  4  4  5  5  5  5  5  5  5  5  5  5  5  5
CENTRE ASSIGNMENTS    5  5  5  5  5  5  5  6  6  6  6  6  6  6  6  6  6  6  6  6
CENTRE ASSIGNMENTS    6  6  6  6  6  6
TYPE ASSIGNMENTS      1  1  1  1  1  1  1  1  1  1  1  1  1  1  1  1  1  1  1  1
TYPE ASSIGNMENTS      1  1  2  2  2  2  2  3  3  3  3  3  4  4  4  4  4  2  3  4
TYPE ASSIGNMENTS      2  3  4  5  6  7  8  9 10  5  6  7  8  9 10 11 12 13 17 14
TYPE ASSIGNMENTS     15 18 19 16 20  1  1  1  1  1  1  1  1  1  1  1  1  1  1  1
TYPE ASSIGNMENTS      1  1  1  1  1  1  1  2  2  2  2  2  3  3  3  3  3  4  4  4
TYPE ASSIGNMENTS      4  4  2  3  4  2  3  4  5  6  7  8  9 10  5  6  7  8  9 10
TYPE ASSIGNMENTS     11 12 13 17 14 15 18 19 16 20  1  1  1  1  1  1  1  2  3  4
TYPE ASSIGNMENTS      2  3  4  5  6  7  8  9 10  1  1  1  1  1  1  1  2  3  4  2
TYPE ASSIGNMENTS      3  4  5  6  7  8  9 10  1  1  1  1  1  1  1  2  3  4  2  3
TYPE ASSIGNMENTS      4  5  6  7  8  9 10  1  1  1  1  1  1  1  2  3  4  2  3  4
TYPE ASSIGNMENTS      5  6  7  8  9 10
EXPONENTS  0.8236000D+04 0.1235000D+04 0.2808000D+03 0.7927000D+02 0.2559000D+02
EXPONENTS  0.8997000D+01 0.3319000D+01 0.9059000D+00 0.3643000D+00 0.1285000D+00
EXPONENTS  0.8236000D+04 0.1235000D+04 0.2808000D+03 0.7927000D+02 0.2559000D+02
EXPONENTS  0.8997000D+01 0.3319000D+01 0.9059000D+00 0.3643000D+00 0.1285000D+00
EXPONENTS  0.9059000D+00 0.1285000D+00 0.1871000D+02 0.4133000D+01 0.1200000D+01
EXPONENTS  0.3827000D+00 0.1209000D+00 0.1871000D+02 0.4133000D+01 0.1200000D+01
EXPONENTS  0.3827000D+00 0.1209000D+00 0.1871000D+02 0.4133000D+01 0.1200000D+01
EXPONENTS  0.3827000D+00 0.1209000D+00 0.3827000D+00 0.3827000D+00 0.3827000D+00
EXPONENTS  0.1209000D+00 0.1209000D+00 0.1209000D+00 0.1097000D+01 0.1097000D+01
EXPONENTS  0.1097000D+01 0.1097000D+01 0.1097000D+01 0.1097000D+01 0.3180000D+00
EXPONENTS  0.3180000D+00 0.3180000D+00 0.3180000D+00 0.3180000D+00 0.3180000D+00
EXPONENTS  0.7610000D+00 0.7610000D+00 0.7610000D+00 0.7610000D+00 0.7610000D+00
EXPONENTS  0.7610000D+00 0.7610000D+00 0.7610000D+00 0.7610000D+00 0.7610000D+00
EXPONENTS  0.8236000D+04 0.1235000D+04 0.2808000D+03 0.7927000D+02 0.2559000D+02
EXPONENTS  0.8997000D+01 0.3319000D+01 0.9059000D+00 0.3643000D+00 0.1285000D+00
EXPONENTS  0.8236000D+04 0.1235000D+04 0.2808000D+03 0.7927000D+02 0.2559000D+02
EXPONENTS  0.8997000D+01 0.3319000D+01 0.9059000D+00 0.3643000D+00 0.1285000D+00
EXPONENTS  0.9059000D+00 0.1285000D+00 0.1871000D+02 0.4133000D+01 0.1200000D+01
EXPONENTS  0.3827000D+00 0.1209000D+00 0.1871000D+02 0.4133000D+01 0.1200000D+01
EXPONENTS  0.3827000D+00 0.1209000D+00 0.1871000D+02 0.4133000D+01 0.1200000D+01
EXPONENTS  0.3827000D+00 0.1209000D+00 0.3827000D+00 0.3827000D+00 0.3827000D+00
EXPONENTS  0.1209000D+00 0.1209000D+00 0.1209000D+00 0.1097000D+01 0.1097000D+01
EXPONENTS  0.1097000D+01 0.1097000D+01 0.1097000D+01 0.1097000D+01 0.3180000D+00
EXPONENTS  0.3180000D+00 0.3180000D+00 0.3180000D+00 0.3180000D+00 0.3180000D+00
EXPONENTS  0.7610000D+00 0.7610000D+00 0.7610000D+00 0.7610000D+00 0.7610000D+00
EXPONENTS  0.7610000D+00 0.7610000D+00 0.7610000D+00 0.7610000D+00 0.7610000D+00
EXPONENTS  0.3387000D+02 0.5095000D+01 0.1159000D+01 0.3258000D+00 0.1027000D+00
EXPONENTS  0.3258000D+00 0.1027000D+00 0.1407000D+01 0.1407000D+01 0.1407000D+01
EXPONENTS  0.3880000D+00 0.3880000D+00 0.3880000D+00 0.1057000D+01 0.1057000D+01
EXPONENTS  0.1057000D+01 0.1057000D+01 0.1057000D+01 0.1057000D+01 0.3387000D+02
EXPONENTS  0.5095000D+01 0.1159000D+01 0.3258000D+00 0.1027000D+00 0.3258000D+00
EXPONENTS  0.1027000D+00 0.1407000D+01 0.1407000D+01 0.1407000D+01 0.3880000D+00
EXPONENTS  0.3880000D+00 0.3880000D+00 0.1057000D+01 0.1057000D+01 0.1057000D+01
EXPONENTS  0.1057000D+01 0.1057000D+01 0.1057000D+01 0.3387000D+02 0.5095000D+01
EXPONENTS  0.1159000D+01 0.3258000D+00 0.1027000D+00 0.3258000D+00 0.1027000D+00
EXPONENTS  0.1407000D+01 0.1407000D+01 0.1407000D+01 0.3880000D+00 0.3880000D+00
EXPONENTS  0.3880000D+00 0.1057000D+01 0.1057000D+01 0.1057000D+01 0.1057000D+01
EXPONENTS  0.1057000D+01 0.1057000D+01 0.3387000D+02 0.5095000D+01 0.1159000D+01
EXPONENTS  0.3258000D+00 0.1027000D+00 0.3258000D+00 0.1027000D+00 0.1407000D+01
EXPONENTS  0.1407000D+01 0.1407000D+01 0.3880000D+00 0.3880000D+00 0.3880000D+00
EXPONENTS  0.1057000D+01 0.1057000D+01 0.1057000D+01 0.1057000D+01 0.1057000D+01
EXPONENTS  0.1057000D+01
MO    1     MO 0.0        OCC NO =    2.0000061  ORB. ENERGY =    2.000006
  0.23107307D+00  0.43077274D+00  0.72808182D+00  0.10945455D+01  0.13447756D+01
  0.11358779D+01  0.42841137D+00  0.18404813D-01 -0.21202318D-02  0.25765186D-03
  0.57630718D-03  0.10790289D-02  0.18371390D-02  0.28417747D-02  0.37425173D-02
  0.38887151D-02  0.24711039D-02 -0.76897098D-03 -0.16560764D-02 -0.50059933D-03
  0.13951695D-02  0.33654804D-03  0.20366935D-02  0.19095296D-02  0.13596989D-02
  0.56255185D-03  0.91324137D-04  0.00000000D+00  0.00000000D+00  0.00000000D+00
  0.00000000D+00  0.00000000D+00  0.00000000D+00  0.00000000D+00  0.00000000D+00
  0.00000000D+00  0.00000000D+00 -0.39418258D-03  0.00000000D+00  0.00000000D+00
 -0.56699092D-04  0.00000000D+00  0.00000000D+00  0.10553774D-04  0.40293104D-03
 -0.41348482D-03  0.00000000D+00  0.00000000D+00  0.00000000D+00 -0.95584257D-04
  0.52056657D-04  0.43527600D-04  0.00000000D+00  0.00000000D+00  0.00000000D+00
 -0.64375900D-04  0.00000000D+00  0.00000000D+00  0.43489022D-03  0.00000000D+00
  0.00000000D+00 -0.24176282D-03  0.00000000D+00  0.00000000D+00  0.00000000D+00
  0.23107307D+00  0.43077274D+00  0.72808182D+00  0.10945455D+01  0.13447756D+01
  0.11358779D+01  0.42841137D+00  0.18404813D-01 -0.21202318D-02  0.25765186D-03
  0.57630718D-03  0.10790289D-02  0.18371390D-02  0.28417747D-02  0.37425173D-02
  0.38887151D-02  0.24711039D-02 -0.76897098D-03 -0.16560764D-02 -0.50059933D-03
  0.13951695D-02  0.33654804D-03 -0.20366935D-02 -0.19095296D-02 -0.13596989D-02
 -0.56255185D-03 -0.91324137D-04  0.00000000D+00  0.00000000D+00  0.00000000D+00
  0.00000000D+00  0.00000000D+00  0.00000000D+00  0.00000000D+00  0.00000000D+00
  0.00000000D+00  0.00000000D+00  0.39418258D-03  0.00000000D+00  0.00000000D+00
  0.56699092D-04  0.00000000D+00  0.00000000D+00  0.10553774D-04  0.40293104D-03
 -0.41348482D-03  0.00000000D+00  0.00000000D+00  0.00000000D+00 -0.95584257D-04
  0.52056657D-04  0.43527600D-04  0.00000000D+00  0.00000000D+00  0.00000000D+00
  0.64375900D-04  0.00000000D+00  0.00000000D+00 -0.43489022D-03  0.00000000D+00
  0.00000000D+00  0.24176282D-03  0.00000000D+00  0.00000000D+00  0.00000000D+00
 -0.17061307D-03 -0.30770770D-03 -0.45371483D-03 -0.43517666D-03 -0.13930255D-03
  0.26876388D-03  0.65947610D-04  0.37824731D-03 -0.52228553D-03  0.00000000D+00
  0.57866947D-04  0.69019232D-04  0.00000000D+00 -0.92107480D-05 -0.88673161D-04
  0.97883909D-04  0.55608642D-03  0.00000000D+00  0.00000000D+00 -0.17061307D-03
 -0.30770770D-03 -0.45371483D-03 -0.43517666D-03 -0.13930255D-03  0.26876388D-03
  0.65947610D-04  0.37824731D-03  0.52228553D-03  0.00000000D+00  0.57866947D-04
 -0.69019232D-04  0.00000000D+00 -0.92107480D-05 -0.88673161D-04  0.97883909D-04
 -0.55608642D-03  0.00000000D+00  0.00000000D+00 -0.17061307D-03 -0.30770770D-03
 -0.45371483D-03 -0.43517666D-03 -0.13930255D-03  0.26876388D-03  0.65947610D-04
 -0.37824731D-03 -0.52228553D-03  0.00000000D+00 -0.57866947D-04  0.69019232D-04
  0.00000000D+00 -0.92107480D-05 -0.88673161D-04  0.97883909D-04 -0.55608642D-03
  0.00000000D+00  0.00000000D+00 -0.17061307D-03 -0.30770770D-03 -0.45371483D-03
 -0.43517666D-03 -0.13930255D-03  0.26876388D-03  0.65947610D-04 -0.37824731D-03
  0.52228553D-03  0.00000000D+00 -0.57866947D-04 -0.69019232D-04  0.00000000D+00
 -0.92107480D-05 -0.88673161D-04  0.97883909D-04  0.55608642D-03  0.00000000D+00
  0.00000000D+00
MO    2     MO 0.0        OCC NO =    2.0000055  ORB. ENERGY =    2.000005
  0.23125031D+00  0.43110316D+00  0.72864029D+00  0.10953850D+01  0.13458071D+01
  0.11367492D+01  0.42873998D+00  0.18418930D-01 -0.21218581D-02  0.25784949D-03
  0.27442442D-03  0.51380911D-03  0.87480397D-03  0.13531887D-02  0.17821019D-02
  0.18517181D-02  0.11766837D-02 -0.36616656D-03 -0.78858605D-03 -0.23837406D-03
  0.10745749D-02  0.25092932D-03 -0.13385391D-02 -0.12549655D-02 -0.89361019D-03
 -0.36971574D-03 -0.60019304D-04  0.00000000D+00  0.00000000D+00  0.00000000D+00
  0.00000000D+00  0.00000000D+00  0.00000000D+00  0.00000000D+00  0.00000000D+00
  0.00000000D+00  0.00000000D+00 -0.15415864D-02  0.00000000D+00  0.00000000D+00
 -0.10596097D-03  0.00000000D+00  0.00000000D+00  0.12431158D-02 -0.32209074D-04
 -0.12109067D-02  0.00000000D+00  0.00000000D+00  0.00000000D+00  0.34493980D-03
 -0.41632668D-03  0.71386879D-04  0.00000000D+00  0.00000000D+00  0.00000000D+00
 -0.56102030D-03  0.00000000D+00  0.00000000D+00  0.13869147D-02  0.00000000D+00
  0.00000000D+00  0.29614654D-03  0.00000000D+00  0.00000000D+00  0.00000000D+00
 -0.23125031D+00 -0.43110316D+00 -0.72864029D+00 -0.10953850D+01 -0.13458071D+01
 -0.11367492D+01 -0.42873998D+00 -0.18418930D-01  0.21218581D-02 -0.25784949D-03
 -0.27442442D-03 -0.51380911D-03 -0.87480397D-03 -0.13531887D-02 -0.17821019D-02
 -0.18517181D-02 -0.11766837D-02  0.36616656D-03  0.78858605D-03  0.23837406D-03
 -0.10745749D-02 -0.25092932D-03 -0.13385391D-02 -0.12549655D-02 -0.89361019D-03
 -0.36971574D-03 -0.60019304D-04  0.00000000D+00  0.00000000D+00  0.00000000D+00
  0.00000000D+00  0.00000000D+00  0.00000000D+00  0.00000000D+00  0.00000000D+00
  0.00000000D+00  0.00000000D+00 -0.15415864D-02  0.00000000D+00  0.00000000D+00
 -0.10596097D-03  0.00000000D+00  0.00000000D+00 -0.12431158D-02  0.32209074D-04
  0.12109067D-02  0.00000000D+00  0.00000000D+00  0.00000000D+00 -0.34493980D-03
  0.41632668D-03 -0.71386879D-04  0.00000000D+00  0.00000000D+00  0.00000000D+00
 -0.56102030D-03  0.00000000D+00  0.00000000D+00  0.13869147D-02  0.00000000D+00
  0.00000000D+00  0.29614654D-03  0.00000000D+00  0.00000000D+00  0.00000000D+00
 -0.25543998D-03 -0.46069653D-03 -0.67929676D-03 -0.65154162D-03 -0.20856222D-03
  0.75641327D-03  0.16216368D-03  0.38417500D-03 -0.67201531D-03  0.00000000D+00
 -0.26133909D-03  0.12764302D-03  0.00000000D+00  0.16900318D-03 -0.25240377D-03
  0.83400587D-04  0.55937593D-03  0.00000000D+00  0.00000000D+00 -0.25543998D-03
 -0.46069653D-03 -0.67929676D-03 -0.65154162D-03 -0.20856222D-03  0.75641327D-03
  0.16216368D-03  0.38417500D-03  0.67201531D-03  0.00000000D+00 -0.26133909D-03
 -0.12764302D-03  0.00000000D+00  0.16900318D-03 -0.25240377D-03  0.83400587D-04
 -0.55937593D-03  0.00000000D+00  0.00000000D+00  0.25543998D-03  0.46069653D-03
  0.67929676D-03  0.65154162D-03  0.20856222D-03 -0.75641327D-03 -0.16216368D-03
  0.38417500D-03  0.67201531D-03  0.00000000D+00 -0.26133909D-03 -0.12764302D-03
  0.00000000D+00 -0.16900318D-03  0.25240377D-03 -0.83400587D-04  0.55937593D-03
  0.00000000D+00  0.00000000D+00  0.25543998D-03  0.46069653D-03  0.67929676D-03
  0.65154162D-03  0.20856222D-03 -0.75641327D-03 -0.16216368D-03  0.38417500D-03
 -0.67201531D-03  0.00000000D+00 -0.26133909D-03  0.12764302D-03  0.00000000D+00
 -0.16900318D-03  0.25240377D-03 -0.83400587D-04 -0.55937593D-03  0.00000000D+00
  0.00000000D+00
MO    3     MO 0.0        OCC NO =    1.9719758  ORB. ENERGY =    1.971976
 -0.17827667D-02 -0.33234824D-02 -0.56172708D-02 -0.84445980D-02 -0.10375164D-01
 -0.87634849D-02 -0.33052641D-02 -0.14199616D-03  0.16357936D-04 -0.19878264D-05
 -0.42314923D-01 -0.79226887D-01 -0.13489055D+00 -0.20865518D+00 -0.27479153D+00
 -0.28552600D+00 -0.18143895D+00  0.56461119D-01  0.12159617D+00  0.36756131D-01
 -0.73132559D-02 -0.16991641D-01 -0.59406796D-01 -0.55697647D-01 -0.39660043D-01
 -0.16408656D-01 -0.26637657D-02  0.00000000D+00  0.00000000D+00  0.00000000D+00
  0.00000000D+00  0.00000000D+00  0.00000000D+00  0.00000000D+00  0.00000000D+00
  0.00000000D+00  0.00000000D+00  0.12843362D-01  0.00000000D+00  0.00000000D+00
  0.35877717D-02  0.00000000D+00  0.00000000D+00  0.17367440D-01  0.37488455D-02
 -0.21116285D-01  0.00000000D+00  0.00000000D+00  0.00000000D+00  0.12263916D-02
  0.16367476D-02 -0.28631392D-02  0.00000000D+00  0.00000000D+00  0.00000000D+00
 -0.46764057D-02  0.00000000D+00  0.00000000D+00  0.13900941D-01  0.00000000D+00
  0.00000000D+00  0.12827594D-03  0.00000000D+00  0.00000000D+00  0.00000000D+00
 -0.17827667D-02 -0.33234824D-02 -0.56172708D-02 -0.84445980D-02 -0.10375164D-01
 -0.87634849D-02 -0.33052641D-02 -0.14199616D-03  0.16357936D-04 -0.19878264D-05
 -0.42314923D-01 -0.79226887D-01 -0.13489055D+00 -0.20865518D+00 -0.27479153D+00
 -0.28552600D+00 -0.18143895D+00  0.56461119D-01  0.12159617D+00  0.36756131D-01
 -0.73132559D-02 -0.16991641D-01  0.59406796D-01  0.55697647D-01  0.39660043D-01
  0.16408656D-01  0.26637657D-02  0.00000000D+00  0.00000000D+00  0.00000000D+00
  0.00000000D+00  0.00000000D+00  0.00000000D+00  0.00000000D+00  0.00000000D+00
  0.00000000D+00  0.00000000D+00 -0.12843362D-01  0.00000000D+00  0.00000000D+00
 -0.35877717D-02  0.00000000D+00  0.00000000D+00  0.17367440D-01  0.37488455D-02
 -0.21116285D-01  0.00000000D+00  0.00000000D+00  0.00000000D+00  0.12263916D-02
  0.16367476D-02 -0.28631392D-02  0.00000000D+00  0.00000000D+00  0.00000000D+00
  0.46764057D-02  0.00000000D+00  0.00000000D+00 -0.13900941D-01  0.00000000D+00
  0.00000000D+00 -0.12827594D-03  0.00000000D+00  0.00000000D+00  0.00000000D+00
  0.15655434D-01  0.28235220D-01  0.41632815D-01  0.39931754D-01  0.12782384D-01
 -0.23353454D-01 -0.11438468D-01 -0.65514503D-02  0.91168150D-02  0.00000000D+00
  0.14099504D-02 -0.17617437D-02  0.00000000D+00  0.55952012D-03 -0.51278912D-03
 -0.46730992D-04  0.77035521D-03  0.00000000D+00  0.00000000D+00  0.15655434D-01
  0.28235220D-01  0.41632815D-01  0.39931754D-01  0.12782384D-01 -0.23353454D-01
 -0.11438468D-01 -0.65514503D-02 -0.91168150D-02  0.00000000D+00  0.14099504D-02
  0.17617437D-02  0.00000000D+00  0.55952012D-03 -0.51278912D-03 -0.46730992D-04
 -0.77035521D-03  0.00000000D+00  0.00000000D+00  0.15655434D-01  0.28235220D-01
  0.41632815D-01  0.39931754D-01  0.12782384D-01 -0.23353454D-01 -0.11438468D-01
  0.65514503D-02  0.91168150D-02  0.00000000D+00 -0.14099504D-02 -0.17617437D-02
  0.00000000D+00  0.55952012D-03 -0.51278912D-03 -0.46730992D-04 -0.77035521D-03
  0.00000000D+00  0.00000000D+00  0.15655434D-01  0.28235220D-01  0.41632815D-01
  0.39931754D-01  0.12782384D-01 -0.23353454D-01 -0.11438468D-01  0.65514503D-02
 -0.91168150D-02  0.00000000D+00 -0.14099504D-02  0.17617437D-02  0.00000000D+00
  0.55952012D-03 -0.51278912D-03 -0.46730992D-04  0.77035521D-03  0.00000000D+00
  0.00000000D+00
MO    4     MO 0.0        OCC NO =    1.9617763  ORB. ENERGY =    1.961776
  0.60764171D-03  0.11327823D-02  0.19146016D-02  0.28782734D-02  0.35362914D-02
  0.29869634D-02  0.11265727D-02  0.48398249D-04 -0.55754712D-05  0.67753468D-06
 -0.34945404D-01 -0.65428823D-01 -0.11139817D+00 -0.17231603D+00 -0.22693415D+00
 -0.23579912D+00 -0.14983975D+00  0.46627915D-01  0.10041912D+00  0.30354725D-01
 -0.55044729D-02 -0.27171141D-02  0.19503358D+00  0.18285637D+00  0.13020463D+00
  0.53869912D-01  0.87451906D-02  0.00000000D+00  0.00000000D+00  0.00000000D+00
  0.00000000D+00  0.00000000D+00  0.00000000D+00  0.00000000D+00  0.00000000D+00
  0.00000000D+00  0.00000000D+00 -0.97837137D-02  0.00000000D+00  0.00000000D+00
 -0.63983389D-02  0.00000000D+00  0.00000000D+00 -0.17669719D-02  0.15333458D-01
 -0.13566486D-01  0.00000000D+00  0.00000000D+00  0.00000000D+00  0.14191010D-03
  0.30602940D-02 -0.32022041D-02  0.00000000D+00  0.00000000D+00  0.00000000D+00
 -0.27286582D-02  0.00000000D+00  0.00000000D+00  0.88536994D-02  0.00000000D+00
  0.00000000D+00 -0.66772483D-03  0.00000000D+00  0.00000000D+00  0.00000000D+00
 -0.60764171D-03 -0.11327823D-02 -0.19146016D-02 -0.28782734D-02 -0.35362914D-02
 -0.29869634D-02 -0.11265727D-02 -0.48398249D-04  0.55754712D-05 -0.67753468D-06
  0.34945404D-01  0.65428823D-01  0.11139817D+00  0.17231603D+00  0.22693415D+00
  0.23579912D+00  0.14983975D+00 -0.46627915D-01 -0.10041912D+00 -0.30354725D-01
  0.55044729D-02  0.27171141D-02  0.19503358D+00  0.18285637D+00  0.13020463D+00
  0.53869912D-01  0.87451906D-02  0.00000000D+00  0.00000000D+00  0.00000000D+00
  0.00000000D+00  0.00000000D+00  0.00000000D+00  0.00000000D+00  0.00000000D+00
  0.00000000D+00  0.00000000D+00 -0.97837137D-02  0.00000000D+00  0.00000000D+00
 -0.63983389D-02  0.00000000D+00  0.00000000D+00  0.17669719D-02 -0.15333458D-01
  0.13566486D-01  0.00000000D+00  0.00000000D+00  0.00000000D+00 -0.14191010D-03
 -0.30602940D-02  0.32022041D-02  0.00000000D+00  0.00000000D+00  0.00000000D+00
 -0.27286582D-02  0.00000000D+00  0.00000000D+00  0.88536994D-02  0.00000000D+00
  0.00000000D+00 -0.66772483D-03  0.00000000D+00  0.00000000D+00  0.00000000D+00
  0.22505656D-01  0.40589877D-01  0.59849750D-01  0.57404370D-01  0.18375469D-01
 -0.25333952D-01 -0.15262132D-01 -0.67040181D-02  0.16599771D-01  0.00000000D+00
  0.60593590D-03  0.19212506D-02  0.00000000D+00 -0.14732212D-02  0.26448653D-02
 -0.11716441D-02 -0.27524616D-02  0.00000000D+00  0.00000000D+00  0.22505656D-01
  0.40589877D-01  0.59849750D-01  0.57404370D-01  0.18375469D-01 -0.25333952D-01
 -0.15262132D-01 -0.67040181D-02 -0.16599771D-01  0.00000000D+00  0.60593590D-03
 -0.19212506D-02  0.00000000D+00 -0.14732212D-02  0.26448653D-02 -0.11716441D-02
  0.27524616D-02  0.00000000D+00  0.00000000D+00 -0.22505656D-01 -0.40589877D-01
 -0.59849750D-01 -0.57404370D-01 -0.18375469D-01  0.25333952D-01  0.15262132D-01
 -0.67040181D-02 -0.16599771D-01  0.00000000D+00  0.60593590D-03 -0.19212506D-02
  0.00000000D+00  0.14732212D-02 -0.26448653D-02  0.11716441D-02 -0.27524616D-02
  0.00000000D+00  0.00000000D+00 -0.22505656D-01 -0.40589877D-01 -0.59849750D-01
 -0.57404370D-01 -0.18375469D-01  0.25333952D-01  0.15262132D-01 -0.67040181D-02
  0.16599771D-01  0.00000000D+00  0.60593590D-03  0.19212506D-02  0.00000000D+00
  0.14732212D-02 -0.26448653D-02  0.11716441D-02  0.27524616D-02  0.00000000D+00
  0.00000000D+00
MO    5     MO 0.0        OCC NO =    1.9570613  ORB. ENERGY =    1.957061
  0.00000000D+00  0.00000000D+00  0.00000000D+00  0.00000000D+00  0.00000000D+00
  0.00000000D+00  0.00000000D+00  0.00000000D+00  0.00000000D+00  0.00000000D+00
  0.00000000D+00  0.00000000D+00  0.00000000D+00  0.00000000D+00  0.00000000D+00
  0.00000000D+00  0.00000000D+00  0.00000000D+00  0.00000000D+00  0.00000000D+00
  0.00000000D+00  0.00000000D+00  0.00000000D+00  0.00000000D+00  0.00000000D+00
  0.00000000D+00  0.00000000D+00  0.38825457D+00  0.36401334D+00  0.25919918D+00
  0.10723917D+00  0.17409106D-01  0.00000000D+00  0.00000000D+00  0.00000000D+00
  0.00000000D+00  0.00000000D+00  0.00000000D+00 -0.17549013D-01  0.00000000D+00
  0.00000000D+00 -0.95445374D-02  0.00000000D+00  0.00000000D+00  0.00000000D+00
  0.00000000D+00  0.11786450D-01  0.00000000D+00  0.00000000D+00  0.00000000D+00
  0.00000000D+00  0.00000000D+00  0.77981451D-03  0.00000000D+00  0.00000000D+00
  0.00000000D+00 -0.17224838D-02  0.00000000D+00  0.00000000D+00  0.97992194D-02
  0.00000000D+00  0.00000000D+00 -0.46317680D-02  0.00000000D+00  0.00000000D+00
  0.00000000D+00  0.00000000D+00  0.00000000D+00  0.00000000D+00  0.00000000D+00
  0.00000000D+00  0.00000000D+00  0.00000000D+00  0.00000000D+00  0.00000000D+00
  0.00000000D+00  0.00000000D+00  0.00000000D+00  0.00000000D+00  0.00000000D+00
  0.00000000D+00  0.00000000D+00  0.00000000D+00  0.00000000D+00  0.00000000D+00
  0.00000000D+00  0.00000000D+00  0.00000000D+00  0.00000000D+00  0.00000000D+00
  0.00000000D+00  0.00000000D+00  0.38825457D+00  0.36401334D+00  0.25919918D+00
  0.10723917D+00  0.17409106D-01  0.00000000D+00  0.00000000D+00  0.00000000D+00
  0.00000000D+00  0.00000000D+00  0.00000000D+00 -0.17549013D-01  0.00000000D+00
  0.00000000D+00 -0.95445374D-02  0.00000000D+00  0.00000000D+00  0.00000000D+00
  0.00000000D+00 -0.11786450D-01  0.00000000D+00  0.00000000D+00  0.00000000D+00
  0.00000000D+00  0.00000000D+00 -0.77981451D-03  0.00000000D+00  0.00000000D+00
  0.00000000D+00 -0.17224838D-02  0.00000000D+00  0.00000000D+00  0.97992194D-02
  0.00000000D+00  0.00000000D+00 -0.46317680D-02  0.00000000D+00  0.00000000D+00
 -0.23900402D-01 -0.43105359D-01 -0.63558827D-01 -0.60961899D-01 -0.19514254D-01
  0.17736908D-01  0.13693072D-01  0.14356340D-01 -0.12334139D-01  0.00000000D+00
  0.39558110D-02 -0.20647668D-02  0.00000000D+00 -0.25871635D-02 -0.68542201D-04
  0.26557057D-02  0.88557039D-02  0.00000000D+00  0.00000000D+00  0.23900402D-01
  0.43105359D-01  0.63558827D-01  0.60961899D-01  0.19514254D-01 -0.17736908D-01
 -0.13693072D-01 -0.14356340D-01 -0.12334139D-01  0.00000000D+00 -0.39558110D-02
 -0.20647668D-02  0.00000000D+00  0.25871635D-02  0.68542201D-04 -0.26557057D-02
  0.88557039D-02  0.00000000D+00  0.00000000D+00 -0.23900402D-01 -0.43105359D-01
 -0.63558827D-01 -0.60961899D-01 -0.19514254D-01  0.17736908D-01  0.13693072D-01
 -0.14356340D-01 -0.12334139D-01  0.00000000D+00 -0.39558110D-02 -0.20647668D-02
  0.00000000D+00 -0.25871635D-02 -0.68542201D-04  0.26557057D-02 -0.88557039D-02
  0.00000000D+00  0.00000000D+00  0.23900402D-01  0.43105359D-01  0.63558827D-01
  0.60961899D-01  0.19514254D-01 -0.17736908D-01 -0.13693072D-01  0.14356340D-01
 -0.12334139D-01  0.00000000D+00  0.39558110D-02 -0.20647668D-02  0.00000000D+00
  0.25871635D-02  0.68542201D-04 -0.26557057D-02 -0.88557039D-02  0.00000000D+00
  0.00000000D+00
MO    6     MO 0.0        OCC NO =    1.9524939  ORB. ENERGY =    1.952494
  0.00000000D+00  0.00000000D+00  0.00000000D+00  0.00000000D+00  0.00000000D+00
  0.00000000D+00  0.00000000D+00  0.00000000D+00  0.00000000D+00  0.00000000D+00
  0.00000000D+00  0.00000000D+00  0.00000000D+00  0.00000000D+00  0.00000000D+00
  0.00000000D+00  0.00000000D+00  0.00000000D+00  0.00000000D+00  0.00000000D+00
  0.00000000D+00  0.00000000D+00  0.00000000D+00  0.00000000D+00  0.00000000D+00
  0.00000000D+00  0.00000000D+00  0.36631458D+00  0.34344321D+00  0.24455202D+00
  0.10117916D+00  0.16425330D-01  0.00000000D+00  0.00000000D+00  0.00000000D+00
  0.00000000D+00  0.00000000D+00  0.00000000D+00 -0.11272524D-01  0.00000000D+00
  0.00000000D+00 -0.44469339D-02  0.00000000D+00  0.00000000D+00  0.00000000D+00
  0.00000000D+00  0.66066205D-01  0.00000000D+00  0.00000000D+00  0.00000000D+00
  0.00000000D+00  0.00000000D+00  0.13247996D-01  0.00000000D+00  0.00000000D+00
  0.00000000D+00  0.25641877D-02  0.00000000D+00  0.00000000D+00 -0.30445976D-02
  0.00000000D+00  0.00000000D+00 -0.46479659D-02  0.00000000D+00  0.00000000D+00
  0.00000000D+00  0.00000000D+00  0.00000000D+00  0.00000000D+00  0.00000000D+00
  0.00000000D+00  0.00000000D+00  0.00000000D+00  0.00000000D+00  0.00000000D+00
  0.00000000D+00  0.00000000D+00  0.00000000D+00  0.00000000D+00  0.00000000D+00
  0.00000000D+00  0.00000000D+00  0.00000000D+00  0.00000000D+00  0.00000000D+00
  0.00000000D+00  0.00000000D+00  0.00000000D+00  0.00000000D+00  0.00000000D+00
  0.00000000D+00  0.00000000D+00 -0.36631458D+00 -0.34344321D+00 -0.24455202D+00
 -0.10117916D+00 -0.16425330D-01  0.00000000D+00  0.00000000D+00  0.00000000D+00
  0.00000000D+00  0.00000000D+00  0.00000000D+00  0.11272524D-01  0.00000000D+00
  0.00000000D+00  0.44469339D-02  0.00000000D+00  0.00000000D+00  0.00000000D+00
  0.00000000D+00  0.66066205D-01  0.00000000D+00  0.00000000D+00  0.00000000D+00
  0.00000000D+00  0.00000000D+00  0.13247996D-01  0.00000000D+00  0.00000000D+00
  0.00000000D+00 -0.25641877D-02  0.00000000D+00  0.00000000D+00  0.30445976D-02
  0.00000000D+00  0.00000000D+00  0.46479659D-02  0.00000000D+00  0.00000000D+00
 -0.29160002D-01 -0.52591264D-01 -0.77545787D-01 -0.74377372D-01 -0.23808624D-01
  0.23758312D-01  0.12469324D-01  0.11215286D-01 -0.13726521D-01  0.00000000D+00
  0.15479790D-02  0.19435101D-03  0.00000000D+00  0.44218658D-03 -0.17886964D-02
  0.13465098D-02  0.46962325D-02  0.00000000D+00  0.00000000D+00  0.29160002D-01
  0.52591264D-01  0.77545787D-01  0.74377372D-01  0.23808624D-01 -0.23758312D-01
 -0.12469324D-01 -0.11215286D-01 -0.13726521D-01  0.00000000D+00 -0.15479790D-02
  0.19435101D-03  0.00000000D+00 -0.44218658D-03  0.17886964D-02 -0.13465098D-02
  0.46962325D-02  0.00000000D+00  0.00000000D+00  0.29160002D-01  0.52591264D-01
  0.77545787D-01  0.74377372D-01  0.23808624D-01 -0.23758312D-01 -0.12469324D-01
  0.11215286D-01  0.13726521D-01  0.00000000D+00  0.15479790D-02 -0.19435101D-03
  0.00000000D+00 -0.44218658D-03  0.17886964D-02 -0.13465098D-02  0.46962325D-02
  0.00000000D+00  0.00000000D+00 -0.29160002D-01 -0.52591264D-01 -0.77545787D-01
 -0.74377372D-01 -0.23808624D-01  0.23758312D-01  0.12469324D-01 -0.11215286D-01
  0.13726521D-01  0.00000000D+00 -0.15479790D-02 -0.19435101D-03  0.00000000D+00
  0.44218658D-03 -0.17886964D-02  0.13465098D-02  0.46962325D-02  0.00000000D+00
  0.00000000D+00
MO    7     MO 0.0        OCC NO =    1.9510868  ORB. ENERGY =    1.951087
 -0.44400398D-03 -0.82772438D-03 -0.13990000D-02 -0.21031553D-02 -0.25839693D-02
 -0.21825751D-02 -0.82318703D-03 -0.35364616D-04  0.40739986D-05 -0.49507480D-06
 -0.99777213D-02 -0.18681442D-01 -0.31806754D-01 -0.49200212D-01 -0.64794949D-01
 -0.67326102D-01 -0.42782716D-01  0.13313348D-01  0.28671981D-01  0.86669761D-02
 -0.22436184D-02 -0.79244387D-02 -0.51722396D+00 -0.48493034D+00 -0.34529929D+00
 -0.14286160D+00 -0.23192018D-01  0.00000000D+00  0.00000000D+00  0.00000000D+00
  0.00000000D+00  0.00000000D+00  0.00000000D+00  0.00000000D+00  0.00000000D+00
  0.00000000D+00  0.00000000D+00  0.29622836D-01  0.00000000D+00  0.00000000D+00
  0.12857443D-01  0.00000000D+00  0.00000000D+00  0.30887718D-01 -0.25261382D-01
 -0.56263362D-02  0.00000000D+00  0.00000000D+00  0.00000000D+00  0.26349109D-02
 -0.23436706D-02 -0.29124025D-03  0.00000000D+00  0.00000000D+00  0.00000000D+00
 -0.53388954D-02  0.00000000D+00  0.00000000D+00  0.76835640D-02  0.00000000D+00
  0.00000000D+00  0.83331219D-02  0.00000000D+00  0.00000000D+00  0.00000000D+00
 -0.44400398D-03 -0.82772438D-03 -0.13990000D-02 -0.21031553D-02 -0.25839693D-02
 -0.21825751D-02 -0.82318703D-03 -0.35364616D-04  0.40739986D-05 -0.49507480D-06
 -0.99777213D-02 -0.18681442D-01 -0.31806754D-01 -0.49200212D-01 -0.64794949D-01
 -0.67326102D-01 -0.42782716D-01  0.13313348D-01  0.28671981D-01  0.86669761D-02
 -0.22436184D-02 -0.79244387D-02  0.51722396D+00  0.48493034D+00  0.34529929D+00
  0.14286160D+00  0.23192018D-01  0.00000000D+00  0.00000000D+00  0.00000000D+00
  0.00000000D+00  0.00000000D+00  0.00000000D+00  0.00000000D+00  0.00000000D+00
  0.00000000D+00  0.00000000D+00 -0.29622836D-01  0.00000000D+00  0.00000000D+00
 -0.12857443D-01  0.00000000D+00  0.00000000D+00  0.30887718D-01 -0.25261382D-01
 -0.56263362D-02  0.00000000D+00  0.00000000D+00  0.00000000D+00  0.26349109D-02
 -0.23436706D-02 -0.29124025D-03  0.00000000D+00  0.00000000D+00  0.00000000D+00
  0.53388954D-02  0.00000000D+00  0.00000000D+00 -0.76835640D-02  0.00000000D+00
  0.00000000D+00 -0.83331219D-02  0.00000000D+00  0.00000000D+00  0.00000000D+00
 -0.17284563D-01 -0.31173421D-01 -0.45965191D-01 -0.44087115D-01 -0.14112539D-01
  0.10170573D-01  0.80694952D-02  0.18593199D-03 -0.15290164D-01  0.00000000D+00
 -0.12758471D-02 -0.48651820D-02  0.00000000D+00  0.34300478D-02 -0.48320959D-02
  0.14020485D-02  0.31524116D-02  0.00000000D+00  0.00000000D+00 -0.17284563D-01
 -0.31173421D-01 -0.45965191D-01 -0.44087115D-01 -0.14112539D-01  0.10170573D-01
  0.80694952D-02  0.18593199D-03  0.15290164D-01  0.00000000D+00 -0.12758471D-02
  0.48651820D-02  0.00000000D+00  0.34300478D-02 -0.48320959D-02  0.14020485D-02
 -0.31524116D-02  0.00000000D+00  0.00000000D+00 -0.17284563D-01 -0.31173421D-01
 -0.45965191D-01 -0.44087115D-01 -0.14112539D-01  0.10170573D-01  0.80694952D-02
 -0.18593199D-03 -0.15290164D-01  0.00000000D+00  0.12758471D-02 -0.48651820D-02
  0.00000000D+00  0.34300478D-02 -0.48320959D-02  0.14020485D-02 -0.31524116D-02
  0.00000000D+00  0.00000000D+00 -0.17284563D-01 -0.31173421D-01 -0.45965191D-01
 -0.44087115D-01 -0.14112539D-01  0.10170573D-01  0.80694952D-02 -0.18593199D-03
  0.15290164D-01  0.00000000D+00  0.12758471D-02  0.48651820D-02  0.00000000D+00
  0.34300478D-02 -0.48320959D-02  0.14020485D-02  0.31524116D-02  0.00000000D+00
  0.00000000D+00
MO    8     MO 0.0        OCC NO =    1.8961202  ORB. ENERGY =    1.896120
  0.00000000D+00  0.00000000D+00  0.00000000D+00  0.00000000D+00  0.00000000D+00
  0.00000000D+00  0.00000000D+00  0.00000000D+00  0.00000000D+00  0.00000000D+00
  0.00000000D+00  0.00000000D+00  0.00000000D+00  0.00000000D+00  0.00000000D+00
  0.00000000D+00  0.00000000D+00  0.00000000D+00  0.00000000D+00  0.00000000D+00