 CaH110_q+129 HF/STO-3G
GAUSSIAN            246 MOL ORBITALS    369 PRIMITIVES      111 NUCLEI
  Ca   1    (CENTRE  1)   0.00000000  0.00000000  0.00000000  CHARGE = 20.0
  H    2    (CENTRE  2)   0.00000000-94.48630664  0.00000000  CHARGE =  1.0
  H    3    (CENTRE  3)   0.00000000-92.59658051  0.00000000  CHARGE =  1.0
  H    4    (CENTRE  4)   0.00000000-90.70685438  0.00000000  CHARGE =  1.0
  H    5    (CENTRE  5)   0.00000000-88.81712825  0.00000000  CHARGE =  1.0
  H    6    (CENTRE  6)   0.00000000-86.92740211  0.00000000  CHARGE =  1.0
  H    7    (CENTRE  7)   0.00000000-85.03767598  0.00000000  CHARGE =  1.0
  H    8    (CENTRE  8)   0.00000000-83.14794985  0.00000000  CHARGE =  1.0
  H    9    (CENTRE  9)   0.00000000-81.25822371  0.00000000  CHARGE =  1.0
  H   10    (CENTRE 10)   0.00000000-79.36849758  0.00000000  CHARGE =  1.0
  H   11    (CENTRE 11)   0.00000000-77.47877145  0.00000000  CHARGE =  1.0
  H   12    (CENTRE 12)   0.00000000-75.58904532  0.00000000  CHARGE =  1.0
  H   13    (CENTRE 13)   0.00000000-73.69931918  0.00000000  CHARGE =  1.0
  H   14    (CENTRE 14)   0.00000000-71.80959305  0.00000000  CHARGE =  1.0
  H   15    (CENTRE 15)   0.00000000-69.91986692  0.00000000  CHARGE =  1.0
  H   16    (CENTRE 16)   0.00000000-68.03014078  0.00000000  CHARGE =  1.0
  H   17    (CENTRE 17)   0.00000000-66.14041465  0.00000000  CHARGE =  1.0
  H   18    (CENTRE 18)   0.00000000-64.25068852  0.00000000  CHARGE =  1.0
  H   19    (CENTRE 19)   0.00000000-62.36096239  0.00000000  CHARGE =  1.0
  H   20    (CENTRE 20)   0.00000000-60.47123625  0.00000000  CHARGE =  1.0
  H   21    (CENTRE 21)   0.00000000-58.58151012  0.00000000  CHARGE =  1.0
  H   22    (CENTRE 22)   0.00000000-56.69178399  0.00000000  CHARGE =  1.0
  H   23    (CENTRE 23)   0.00000000-54.80205785  0.00000000  CHARGE =  1.0
  H   24    (CENTRE 24)   0.00000000-52.91233172  0.00000000  CHARGE =  1.0
  H   25    (CENTRE 25)   0.00000000-51.02260559  0.00000000  CHARGE =  1.0
  H   26    (CENTRE 26)   0.00000000-49.13287946  0.00000000  CHARGE =  1.0
  H   27    (CENTRE 27)   0.00000000  0.00000000-47.24315332  CHARGE =  1.0
  H   28    (CENTRE 28)   0.00000000  0.00000000-45.35342719  CHARGE =  1.0
  H   29    (CENTRE 29)   0.00000000  0.00000000-43.46370106  CHARGE =  1.0
  H   30    (CENTRE 30)   0.00000000  0.00000000-41.57397492  CHARGE =  1.0
  H   31    (CENTRE 31)   0.00000000  0.00000000-39.68424879  CHARGE =  1.0
  H   32    (CENTRE 32)   0.00000000  0.00000000-37.79452266  CHARGE =  1.0
  H   33    (CENTRE 33)   0.00000000  0.00000000-35.90479652  CHARGE =  1.0
  H   34    (CENTRE 34)   0.00000000  0.00000000-34.01507039  CHARGE =  1.0
  H   35    (CENTRE 35)   0.00000000  0.00000000-32.12534426  CHARGE =  1.0
  H   36    (CENTRE 36)   0.00000000  0.00000000-30.23561813  CHARGE =  1.0
  H   37    (CENTRE 37)   0.00000000  0.00000000-28.34589199  CHARGE =  1.0
  H   38    (CENTRE 38)   0.00000000  0.00000000-26.45616586  CHARGE =  1.0
  H   39    (CENTRE 39)   0.00000000  0.00000000-24.56643973  CHARGE =  1.0
  H   40    (CENTRE 40)   0.00000000  0.00000000-22.67671359  CHARGE =  1.0
  H   41    (CENTRE 41)   0.00000000  0.00000000-20.78698746  CHARGE =  1.0
  H   42    (CENTRE 42)   0.00000000  0.00000000-18.89726133  CHARGE =  1.0
  H   43    (CENTRE 43)   0.00000000  0.00000000-17.00753520  CHARGE =  1.0
  H   44    (CENTRE 44)   0.00000000  0.00000000-15.11780906  CHARGE =  1.0
  H   45    (CENTRE 45)   0.00000000  0.00000000-13.22808293  CHARGE =  1.0
  H   46    (CENTRE 46)   0.00000000  0.00000000-11.33835680  CHARGE =  1.0
  H   47    (CENTRE 47)   0.00000000  0.00000000 -9.44863066  CHARGE =  1.0
  H   48    (CENTRE 48)   0.00000000  0.00000000 -7.55890453  CHARGE =  1.0
  H   49    (CENTRE 49)   0.00000000  0.00000000 -5.66917840  CHARGE =  1.0
  H   50    (CENTRE 50)   0.00000000  0.00000000 -3.77945227  CHARGE =  1.0
  H   51    (CENTRE 51)   0.00000000  0.00000000 -1.88972613  CHARGE =  1.0
  H   52    (CENTRE 52)   0.00000000  0.00000000  1.88972613  CHARGE =  1.0
  H   53    (CENTRE 53)   0.00000000  0.00000000  3.77945227  CHARGE =  1.0
  H   54    (CENTRE 54)   0.00000000  0.00000000  5.66917840  CHARGE =  1.0
  H   55    (CENTRE 55)   0.00000000  0.00000000  7.55890453  CHARGE =  1.0
  H   56    (CENTRE 56)   0.00000000  0.00000000  9.44863066  CHARGE =  1.0
  H   57    (CENTRE 57)   0.00000000  0.00000000 11.33835680  CHARGE =  1.0
  H   58    (CENTRE 58)   0.00000000  0.00000000 13.22808293  CHARGE =  1.0
  H   59    (CENTRE 59)   0.00000000  0.00000000 15.11780906  CHARGE =  1.0
  H   60    (CENTRE 60)   0.00000000  0.00000000 17.00753520  CHARGE =  1.0
  H   61    (CENTRE 61)   0.00000000  0.00000000 18.89726133  CHARGE =  1.0
  H   62    (CENTRE 62)   0.00000000  0.00000000 20.78698746  CHARGE =  1.0
  H   63    (CENTRE 63)   0.00000000  0.00000000 22.67671359  CHARGE =  1.0
  H   64    (CENTRE 64)   0.00000000  0.00000000 24.56643973  CHARGE =  1.0
  H   65    (CENTRE 65)   0.00000000  0.00000000 26.45616586  CHARGE =  1.0
  H   66    (CENTRE 66)   0.00000000  0.00000000 28.34589199  CHARGE =  1.0
  H   67    (CENTRE 67)   0.00000000  0.00000000 30.23561813  CHARGE =  1.0
  H   68    (CENTRE 68)   0.00000000  0.00000000 32.12534426  CHARGE =  1.0
  H   69    (CENTRE 69)   0.00000000  0.00000000 34.01507039  CHARGE =  1.0
  H   70    (CENTRE 70)   0.00000000  0.00000000 35.90479652  CHARGE =  1.0
  H   71    (CENTRE 71)   0.00000000  0.00000000 37.79452266  CHARGE =  1.0
  H   72    (CENTRE 72)   0.00000000  0.00000000 39.68424879  CHARGE =  1.0
  H   73    (CENTRE 73)   0.00000000  0.00000000 41.57397492  CHARGE =  1.0
  H   74    (CENTRE 74)   0.00000000  0.00000000 43.46370106  CHARGE =  1.0
  H   75    (CENTRE 75)   0.00000000  0.00000000 45.35342719  CHARGE =  1.0
  H   76    (CENTRE 76)   0.00000000  0.00000000 47.24315332  CHARGE =  1.0
  H   77    (CENTRE 77)   0.00000000  0.00000000 49.13287946  CHARGE =  1.0
  H   78    (CENTRE 78)   0.00000000  0.00000000 51.02260559  CHARGE =  1.0
  H   79    (CENTRE 79)   0.00000000  0.00000000 52.91233172  CHARGE =  1.0
  H   80    (CENTRE 80)   0.00000000  0.00000000 54.80205785  CHARGE =  1.0
  H   81    (CENTRE 81)   0.00000000  0.00000000 56.69178399  CHARGE =  1.0
  H   82    (CENTRE 82)   0.00000000  0.00000000 58.58151012  CHARGE =  1.0
  H   83    (CENTRE 83)   0.00000000  0.00000000 60.47123625  CHARGE =  1.0
  H   84    (CENTRE 84)   0.00000000  0.00000000 62.36096239  CHARGE =  1.0
  H   85    (CENTRE 85)   0.00000000  0.00000000 64.25068852  CHARGE =  1.0
  H   86    (CENTRE 86)   0.00000000  0.00000000 66.14041465  CHARGE =  1.0
  H   87    (CENTRE 87)   0.00000000  0.00000000 68.03014078  CHARGE =  1.0
  H   88    (CENTRE 88)   0.00000000  0.00000000 69.91986692  CHARGE =  1.0
  H   89    (CENTRE 89)   0.00000000  0.00000000 71.80959305  CHARGE =  1.0
  H   90    (CENTRE 90)   0.00000000  0.00000000 73.69931918  CHARGE =  1.0
  H   91    (CENTRE 91)   0.00000000  0.00000000 75.58904532  CHARGE =  1.0
  H   92    (CENTRE 92)   0.00000000  0.00000000 77.47877145  CHARGE =  1.0
  H   93    (CENTRE 93)   0.00000000  0.00000000 79.36849758  CHARGE =  1.0
  H   94    (CENTRE 94)   0.00000000  0.00000000 81.25822371  CHARGE =  1.0
  H   95    (CENTRE 95)   0.00000000  0.00000000 83.14794985  CHARGE =  1.0
  H   96    (CENTRE 96)   0.00000000  0.00000000 85.03767598  CHARGE =  1.0
  H   97    (CENTRE 97)   0.00000000  0.00000000 86.92740211  CHARGE =  1.0
  H   98    (CENTRE 98)   0.00000000  0.00000000 88.81712825  CHARGE =  1.0
  H   99    (CENTRE 99)   0.00000000  0.00000000 90.70685438  CHARGE =  1.0
  H  100    (CENTRE100)   0.00000000  0.00000000 92.59658051  CHARGE =  1.0
  H  101    (CENTRE101)   0.00000000  0.00000000 94.48630664  CHARGE =  1.0
  H  102    (CENTRE102)   0.00000000  0.00000000 96.37603278  CHARGE =  1.0
  H  103    (CENTRE103)   0.00000000  0.00000000 98.26575891  CHARGE =  1.0
  H  104    (CENTRE104)   0.00000000  0.00000000100.15548504  CHARGE =  1.0
  H  105    (CENTRE105)   0.00000000  0.00000000102.04521118  CHARGE =  1.0
  H  106    (CENTRE106)   0.00000000  0.00000000103.93493731  CHARGE =  1.0
  H  107    (CENTRE107)   0.00000000  0.00000000105.82466344  CHARGE =  1.0
  H  108    (CENTRE108)   0.00000000  0.00000000107.71438957  CHARGE =  1.0
  H  109    (CENTRE109)   0.00000000  0.00000000109.60411571  CHARGE =  1.0
  H  110    (CENTRE110)   0.00000000  0.00000000111.49384184  CHARGE =  1.0
  H  111    (CENTRE111)   0.00000000  0.00000000113.38356797  CHARGE =  1.0
CENTRE ASSIGNMENTS    1  1  1  1  1  1  1  1  1  1  1  1  1  1  1  1  1  1  1  1
CENTRE ASSIGNMENTS    1  1  1  1  1  1  1  1  1  1  1  1  1  1  1  1  1  1  1  2
CENTRE ASSIGNMENTS    2  2  3  3  3  4  4  4  5  5  5  6  6  6  7  7  7  8  8  8
CENTRE ASSIGNMENTS    9  9  9 10 10 10 11 11 11 12 12 12 13 13 13 14 14 14 15 15
CENTRE ASSIGNMENTS   15 16 16 16 17 17 17 18 18 18 19 19 19 20 20 20 21 21 21 22
CENTRE ASSIGNMENTS   22 22 23 23 23 24 24 24 25 25 25 26 26 26 27 27 27 28 28 28
CENTRE ASSIGNMENTS   29 29 29 30 30 30 31 31 31 32 32 32 33 33 33 34 34 34 35 35
CENTRE ASSIGNMENTS   35 36 36 36 37 37 37 38 38 38 39 39 39 40 40 40 41 41 41 42
CENTRE ASSIGNMENTS   42 42 43 43 43 44 44 44 45 45 45 46 46 46 47 47 47 48 48 48
CENTRE ASSIGNMENTS   49 49 49 50 50 50 51 51 51 52 52 52 53 53 53 54 54 54 55 55
CENTRE ASSIGNMENTS   55 56 56 56 57 57 57 58 58 58 59 59 59 60 60 60 61 61 61 62
CENTRE ASSIGNMENTS   62 62 63 63 63 64 64 64 65 65 65 66 66 66 67 67 67 68 68 68
CENTRE ASSIGNMENTS   69 69 69 70 70 70 71 71 71 72 72 72 73 73 73 74 74 74 75 75
CENTRE ASSIGNMENTS   75 76 76 76 77 77 77 78 78 78 79 79 79 80 80 80 81 81 81 82
CENTRE ASSIGNMENTS   82 82 83 83 83 84 84 84 85 85 85 86 86 86 87 87 87 88 88 88
CENTRE ASSIGNMENTS   89 89 89 90 90 90 91 91 91 92 92 92 93 93 93 94 94 94 95 95
CENTRE ASSIGNMENTS   95 96 96 96 97 97 97 98 98 98 99 99 99100100100101101101102
CENTRE ASSIGNMENTS  102102103103103104104104105105105106106106107107107108108108
CENTRE ASSIGNMENTS  109109109110110110111111111
TYPE ASSIGNMENTS      1  1  1  1  1  1  2  2  2  3  3  3  4  4  4  1  1  1  2  2
TYPE ASSIGNMENTS      2  3  3  3  4  4  4  1  1  1  2  2  2  3  3  3  4  4  4  1
TYPE ASSIGNMENTS      1  1  1  1  1  1  1  1  1  1  1  1  1  1  1  1  1  1  1  1
TYPE ASSIGNMENTS      1  1  1  1  1  1  1  1  1  1  1  1  1  1  1  1  1  1  1  1
TYPE ASSIGNMENTS      1  1  1  1  1  1  1  1  1  1  1  1  1  1  1  1  1  1  1  1
TYPE ASSIGNMENTS      1  1  1  1  1  1  1  1  1  1  1  1  1  1  1  1  1  1  1  1
TYPE ASSIGNMENTS      1  1  1  1  1  1  1  1  1  1  1  1  1  1  1  1  1  1  1  1
TYPE ASSIGNMENTS      1  1  1  1  1  1  1  1  1  1  1  1  1  1  1  1  1  1  1  1
TYPE ASSIGNMENTS      1  1  1  1  1  1  1  1  1  1  1  1  1  1  1  1  1  1  1  1
TYPE ASSIGNMENTS      1  1  1  1  1  1  1  1  1  1  1  1  1  1  1  1  1  1  1  1
TYPE ASSIGNMENTS      1  1  1  1  1  1  1  1  1  1  1  1  1  1  1  1  1  1  1  1
TYPE ASSIGNMENTS      1  1  1  1  1  1  1  1  1  1  1  1  1  1  1  1  1  1  1  1
TYPE ASSIGNMENTS      1  1  1  1  1  1  1  1  1  1  1  1  1  1  1  1  1  1  1  1
TYPE ASSIGNMENTS      1  1  1  1  1  1  1  1  1  1  1  1  1  1  1  1  1  1  1  1
TYPE ASSIGNMENTS      1  1  1  1  1  1  1  1  1  1  1  1  1  1  1  1  1  1  1  1
TYPE ASSIGNMENTS      1  1  1  1  1  1  1  1  1  1  1  1  1  1  1  1  1  1  1  1
TYPE ASSIGNMENTS      1  1  1  1  1  1  1  1  1  1  1  1  1  1  1  1  1  1  1  1
TYPE ASSIGNMENTS      1  1  1  1  1  1  1  1  1  1  1  1  1  1  1  1  1  1  1  1
TYPE ASSIGNMENTS      1  1  1  1  1  1  1  1  1
EXPONENTS  0.8540325D+03 0.1555631D+03 0.4210144D+02 0.5956030D+02 0.1384053D+02
EXPONENTS  0.4501371D+01 0.5956030D+02 0.1384053D+02 0.4501371D+01 0.5956030D+02
EXPONENTS  0.1384053D+02 0.4501371D+01 0.5956030D+02 0.1384053D+02 0.4501371D+01
EXPONENTS  0.4374706D+01 0.1220532D+01 0.4777079D+00 0.4374706D+01 0.1220532D+01
EXPONENTS  0.4777079D+00 0.4374706D+01 0.1220532D+01 0.4777079D+00 0.4374706D+01
EXPONENTS  0.1220532D+01 0.4777079D+00 0.4558490D+00 0.1682369D+00 0.7429521D-01
EXPONENTS  0.4558490D+00 0.1682369D+00 0.7429521D-01 0.4558490D+00 0.1682369D+00
EXPONENTS  0.7429521D-01 0.4558490D+00 0.1682369D+00 0.7429521D-01 0.3425251D+01
EXPONENTS  0.6239137D+00 0.1688554D+00 0.3425251D+01 0.6239137D+00 0.1688554D+00
EXPONENTS  0.3425251D+01 0.6239137D+00 0.1688554D+00 0.3425251D+01 0.6239137D+00
EXPONENTS  0.1688554D+00 0.3425251D+01 0.6239137D+00 0.1688554D+00 0.3425251D+01
EXPONENTS  0.6239137D+00 0.1688554D+00 0.3425251D+01 0.6239137D+00 0.1688554D+00
EXPONENTS  0.3425251D+01 0.6239137D+00 0.1688554D+00 0.3425251D+01 0.6239137D+00
EXPONENTS  0.1688554D+00 0.3425251D+01 0.6239137D+00 0.1688554D+00 0.3425251D+01
EXPONENTS  0.6239137D+00 0.1688554D+00 0.3425251D+01 0.6239137D+00 0.1688554D+00
EXPONENTS  0.3425251D+01 0.6239137D+00 0.1688554D+00 0.3425251D+01 0.6239137D+00
EXPONENTS  0.1688554D+00 0.3425251D+01 0.6239137D+00 0.1688554D+00 0.3425251D+01
EXPONENTS  0.6239137D+00 0.1688554D+00 0.3425251D+01 0.6239137D+00 0.1688554D+00
EXPONENTS  0.3425251D+01 0.6239137D+00 0.1688554D+00 0.3425251D+01 0.6239137D+00
EXPONENTS  0.1688554D+00 0.3425251D+01 0.6239137D+00 0.1688554D+00 0.3425251D+01
EXPONENTS  0.6239137D+00 0.1688554D+00 0.3425251D+01 0.6239137D+00 0.1688554D+00
EXPONENTS  0.3425251D+01 0.6239137D+00 0.1688554D+00 0.3425251D+01 0.6239137D+00
EXPONENTS  0.1688554D+00 0.3425251D+01 0.6239137D+00 0.1688554D+00 0.3425251D+01
EXPONENTS  0.6239137D+00 0.1688554D+00 0.3425251D+01 0.6239137D+00 0.1688554D+00
EXPONENTS  0.3425251D+01 0.6239137D+00 0.1688554D+00 0.3425251D+01 0.6239137D+00
EXPONENTS  0.1688554D+00 0.3425251D+01 0.6239137D+00 0.1688554D+00 0.3425251D+01
EXPONENTS  0.6239137D+00 0.1688554D+00 0.3425251D+01 0.6239137D+00 0.1688554D+00
EXPONENTS  0.3425251D+01 0.6239137D+00 0.1688554D+00 0.3425251D+01 0.6239137D+00
EXPONENTS  0.1688554D+00 0.3425251D+01 0.6239137D+00 0.1688554D+00 0.3425251D+01
EXPONENTS  0.6239137D+00 0.1688554D+00 0.3425251D+01 0.6239137D+00 0.1688554D+00
EXPONENTS  0.3425251D+01 0.6239137D+00 0.1688554D+00 0.3425251D+01 0.6239137D+00
EXPONENTS  0.1688554D+00 0.3425251D+01 0.6239137D+00 0.1688554D+00 0.3425251D+01
EXPONENTS  0.6239137D+00 0.1688554D+00 0.3425251D+01 0.6239137D+00 0.1688554D+00
EXPONENTS  0.3425251D+01 0.6239137D+00 0.1688554D+00 0.3425251D+01 0.6239137D+00
EXPONENTS  0.1688554D+00 0.3425251D+01 0.6239137D+00 0.1688554D+00 0.3425251D+01
EXPONENTS  0.6239137D+00 0.1688554D+00 0.3425251D+01 0.6239137D+00 0.1688554D+00
EXPONENTS  0.3425251D+01 0.6239137D+00 0.1688554D+00 0.3425251D+01 0.6239137D+00
EXPONENTS  0.1688554D+00 0.3425251D+01 0.6239137D+00 0.1688554D+00 0.3425251D+01
EXPONENTS  0.6239137D+00 0.1688554D+00 0.3425251D+01 0.6239137D+00 0.1688554D+00
EXPONENTS  0.3425251D+01 0.6239137D+00 0.1688554D+00 0.3425251D+01 0.6239137D+00
EXPONENTS  0.1688554D+00 0.3425251D+01 0.6239137D+00 0.1688554D+00 0.3425251D+01
EXPONENTS  0.6239137D+00 0.1688554D+00 0.3425251D+01 0.6239137D+00 0.1688554D+00
EXPONENTS  0.3425251D+01 0.6239137D+00 0.1688554D+00 0.3425251D+01 0.6239137D+00
EXPONENTS  0.1688554D+00 0.3425251D+01 0.6239137D+00 0.1688554D+00 0.3425251D+01
EXPONENTS  0.6239137D+00 0.1688554D+00 0.3425251D+01 0.6239137D+00 0.1688554D+00
EXPONENTS  0.3425251D+01 0.6239137D+00 0.1688554D+00 0.3425251D+01 0.6239137D+00
EXPONENTS  0.1688554D+00 0.3425251D+01 0.6239137D+00 0.1688554D+00 0.3425251D+01
EXPONENTS  0.6239137D+00 0.1688554D+00 0.3425251D+01 0.6239137D+00 0.1688554D+00
EXPONENTS  0.3425251D+01 0.6239137D+00 0.1688554D+00 0.3425251D+01 0.6239137D+00
EXPONENTS  0.1688554D+00 0.3425251D+01 0.6239137D+00 0.1688554D+00 0.3425251D+01
EXPONENTS  0.6239137D+00 0.1688554D+00 0.3425251D+01 0.6239137D+00 0.1688554D+00
EXPONENTS  0.3425251D+01 0.6239137D+00 0.1688554D+00 0.3425251D+01 0.6239137D+00
EXPONENTS  0.1688554D+00 0.3425251D+01 0.6239137D+00 0.1688554D+00 0.3425251D+01
EXPONENTS  0.6239137D+00 0.1688554D+00 0.3425251D+01 0.6239137D+00 0.1688554D+00
EXPONENTS  0.3425251D+01 0.6239137D+00 0.1688554D+00 0.3425251D+01 0.6239137D+00
EXPONENTS  0.1688554D+00 0.3425251D+01 0.6239137D+00 0.1688554D+00 0.3425251D+01
EXPONENTS  0.6239137D+00 0.1688554D+00 0.3425251D+01 0.6239137D+00 0.1688554D+00
EXPONENTS  0.3425251D+01 0.6239137D+00 0.1688554D+00 0.3425251D+01 0.6239137D+00
EXPONENTS  0.1688554D+00 0.3425251D+01 0.6239137D+00 0.1688554D+00 0.3425251D+01
EXPONENTS  0.6239137D+00 0.1688554D+00 0.3425251D+01 0.6239137D+00 0.1688554D+00
EXPONENTS  0.3425251D+01 0.6239137D+00 0.1688554D+00 0.3425251D+01 0.6239137D+00
EXPONENTS  0.1688554D+00 0.3425251D+01 0.6239137D+00 0.1688554D+00 0.3425251D+01
EXPONENTS  0.6239137D+00 0.1688554D+00 0.3425251D+01 0.6239137D+00 0.1688554D+00
EXPONENTS  0.3425251D+01 0.6239137D+00 0.1688554D+00 0.3425251D+01 0.6239137D+00
EXPONENTS  0.1688554D+00 0.3425251D+01 0.6239137D+00 0.1688554D+00 0.3425251D+01
EXPONENTS  0.6239137D+00 0.1688554D+00 0.3425251D+01 0.6239137D+00 0.1688554D+00
EXPONENTS  0.3425251D+01 0.6239137D+00 0.1688554D+00 0.3425251D+01 0.6239137D+00
EXPONENTS  0.1688554D+00 0.3425251D+01 0.6239137D+00 0.1688554D+00 0.3425251D+01
EXPONENTS  0.6239137D+00 0.1688554D+00 0.3425251D+01 0.6239137D+00 0.1688554D+00
EXPONENTS  0.3425251D+01 0.6239137D+00 0.1688554D+00 0.3425251D+01 0.6239137D+00
EXPONENTS  0.1688554D+00 0.3425251D+01 0.6239137D+00 0.1688554D+00 0.3425251D+01
EXPONENTS  0.6239137D+00 0.1688554D+00 0.3425251D+01 0.6239137D+00 0.1688554D+00
EXPONENTS  0.3425251D+01 0.6239137D+00 0.1688554D+00 0.3425251D+01 0.6239137D+00
EXPONENTS  0.1688554D+00 0.3425251D+01 0.6239137D+00 0.1688554D+00
MO    1     MO 0.0        OCC NO =    1.0000000  ORB. ENERGY = -202.728384
  0.17387623D+02  0.16816552D+02  0.52409847D+01  0.27951215D-02 -0.37387008D-02
 -0.28216533D-02 -0.23977953D-13 -0.15077980D-13 -0.23886054D-14 -0.41405885D-04
 -0.26037131D-04 -0.41247191D-05  0.49221963D-04  0.30952091D-04  0.49033312D-05
 -0.72236985D-03  0.28485083D-03  0.56257689D-03 -0.18755619D-17 -0.21378285D-16
 -0.51374021D-17  0.23503233D-07  0.26789775D-06  0.64378339D-07 -0.36772638D-07
 -0.41914689D-06 -0.10072493D-06  0.29686143D-04 -0.89235536D-06 -0.27886572D-04
 -0.11784197D-16  0.15939153D-16  0.55209108D-17  0.39226553D-08 -0.53057332D-08
 -0.18377689D-08  0.25377502D-08 -0.34325283D-08 -0.11889391D-08  0.17894036D-16
  0.17306333D-16  0.53936279D-17  0.11771469D-15  0.11384852D-15  0.35481612D-16
 -0.58956677D-16 -0.57020332D-16 -0.17770747D-16 -0.57892260D-16 -0.55990873D-16
 -0.17449910D-16 -0.96224485D-16 -0.93064133D-16 -0.29004025D-16  0.65594082D-17
  0.63439741D-17  0.19771396D-17 -0.29998776D-16 -0.29013510D-16 -0.90422437D-17
 -0.14002076D-16 -0.13542198D-16 -0.42205117D-17 -0.11039091D-15 -0.10676528D-15
 -0.33274075D-16  0.11868017D-15  0.11478229D-15  0.35772627D-16  0.11256416D-16
  0.10886716D-16  0.33929138D-17 -0.71115627D-17 -0.68779938D-17 -0.21435702D-17
 -0.16911844D-15 -0.16356400D-15 -0.50975753D-16  0.14702670D-16  0.14219782D-16
  0.44316849D-17 -0.23357961D-16 -0.22590803D-16 -0.70405664D-17  0.17511283D-15
  0.16936151D-15  0.52782585D-16  0.75151537D-17  0.72683294D-17  0.22652208D-17
  0.10964200D-15  0.10604097D-15  0.33048338D-16 -0.23563966D-16 -0.22790042D-16
 -0.71026606D-17 -0.80935278D-17 -0.78277077D-17 -0.24395546D-17 -0.83979962D-16
 -0.81221763D-16 -0.25313276D-16 -0.18943611D-16 -0.18321435D-16 -0.57099912D-17
  0.54567955D-16  0.52775751D-16  0.16447896D-16  0.94203464D-16  0.91109489D-16
  0.28394848D-16  0.48408752D-16  0.46818837D-16  0.14591387D-16 -0.24191671D-15
 -0.23397131D-15 -0.72918637D-16  0.38829813D-15  0.37554505D-15  0.11704099D-15
 -0.20752988D-15 -0.20071387D-15 -0.62553745D-16  0.10100629D-15  0.97688890D-16
  0.30445360D-16 -0.29430292D-15 -0.28463697D-15 -0.88708912D-16  0.92878855D-15
  0.89828385D-15  0.27995584D-15 -0.35679295D-14 -0.34507461D-14 -0.10754468D-14
  0.14073283D-13  0.13611066D-13  0.42419748D-14 -0.55358988D-13 -0.53540803D-13
 -0.16686330D-13  0.21609797D-12  0.20900055D-12  0.65136343D-13 -0.84162018D-12
 -0.81397840D-12 -0.25368151D-12  0.32804102D-11  0.31726699D-11  0.98878262D-12
 -0.12784552D-10 -0.12364662D-10 -0.38535251D-11  0.49812765D-10  0.48176738D-10
  0.15014585D-10 -0.19407399D-09 -0.18769991D-09 -0.58497863D-10  0.75669825D-09
  0.73184560D-09  0.22808431D-09 -0.29549058D-08 -0.28578563D-08 -0.89066897D-09
  0.11539043D-07  0.11160060D-07  0.34781031D-08 -0.44835989D-07 -0.43363416D-07
 -0.13514483D-07  0.17286816D-06  0.16719056D-06  0.52105994D-07 -0.66963291D-06
 -0.64763980D-06 -0.20184104D-06  0.27322522D-05  0.26425153D-05  0.82355661D-06
 -0.10125472D-04 -0.97929162D-05 -0.30520242D-05  0.52617727D-04  0.50889575D-04
  0.15860058D-04 -0.94458437D-04 -0.91356087D-04 -0.28471702D-04 -0.94365030D-04
 -0.91265749D-04 -0.28443548D-04  0.52594034D-04  0.50866660D-04  0.15852916D-04
 -0.10118382D-04 -0.97860587D-05 -0.30498871D-05  0.27310051D-05  0.26413093D-05
  0.82318073D-06 -0.66934776D-06 -0.64736402D-06 -0.20175509D-06  0.17280456D-06
  0.16712905D-06  0.52086825D-07 -0.44822301D-07 -0.43350178D-07 -0.13510357D-07
  0.11536284D-07  0.11157392D-07  0.34772718D-08 -0.29544007D-08 -0.28573677D-08
 -0.89051672D-09  0.75662190D-09  0.73177176D-09  0.22806130D-09 -0.19406860D-09
 -0.18769470D-09 -0.58496241D-10  0.49815277D-10  0.48179167D-10  0.15015342D-10
 -0.12786330D-10 -0.12366381D-10 -0.38540609D-11  0.32812550D-11  0.31734870D-11
  0.98903729D-12 -0.84189247D-12 -0.81424175D-12 -0.25376359D-12  0.21618472D-12
  0.20908445D-12  0.65162489D-13 -0.55592364D-13 -0.53766514D-13 -0.16756674D-13
  0.14264534D-13  0.13796037D-13  0.42996221D-14 -0.37593062D-14 -0.36358373D-14
 -0.11331317D-14  0.11796103D-14  0.11408677D-14  0.35555864D-15 -0.10937263D-15
 -0.10578044D-15 -0.32967144D-16  0.22504111D-15  0.21764997D-15  0.67831988D-16
 -0.22238250D-15 -0.21507867D-15 -0.67030628D-16  0.84875393D-17  0.82087785D-17
  0.25583177D-17 -0.15636191D-15 -0.15122643D-15 -0.47130672D-16  0.96280260D-16
  0.93118076D-16  0.29020837D-16 -0.30399074D-16 -0.29400661D-16 -0.91629019D-17
 -0.26779758D-16 -0.25900216D-16 -0.80719660D-17 -0.10288839D-15 -0.99509173D-16
 -0.31012663D-16 -0.36413298D-16 -0.35217356D-16 -0.10975712D-16  0.17809106D-15
  0.17224192D-15  0.53680282D-16 -0.12965089D-15 -0.12539270D-15 -0.39079427D-16
  0.10386607D-15  0.10045474D-15  0.31307354D-16  0.14471003D-16  0.13995724D-16
  0.43618559D-17  0.77616863D-16  0.75067651D-16  0.23395308D-16 -0.25077558D-15
 -0.24253923D-15 -0.75588883D-16  0.10327350D-15  0.99881634D-16  0.31128743D-16
 -0.18842369D-15 -0.18223519D-15 -0.56794749D-16  0.14742613D-15  0.14258413D-15
  0.44437246D-16  0.11260028D-16  0.10890209D-16  0.33940025D-17  0.10714562D-15
  0.10362657D-15  0.32295877D-16 -0.24987108D-17 -0.24166443D-17 -0.75316246D-18
  0.29861673D-16  0.28880910D-16  0.90009183D-17 -0.11310605D-15 -0.10939125D-15
 -0.34092475D-16  0.61130898D-16  0.59123143D-16  0.18426101D-16  0.66150371D-16
  0.63977759D-16  0.19939073D-16 -0.72503929D-17 -0.70122644D-17 -0.21854165D-17
 -0.38167874D-16 -0.36914306D-16 -0.11504577D-16 -0.12119086D-15 -0.11721052D-15
 -0.36529399D-16  0.94741975D-16  0.91630313D-16  0.28557166D-16 -0.11220928D-15
 -0.10852393D-15 -0.33822168D-16  0.92230881D-16  0.89201693D-16  0.27800271D-16
 -0.29048831D-16 -0.28094765D-16 -0.87559111D-17  0.24686177D-15  0.23875396D-15
  0.74409180D-16 -0.12618342D-15 -0.12203911D-15 -0.38034261D-16 -0.52081528D-16
 -0.50370987D-16 -0.15698436D-16 -0.24415214D-15 -0.23613332D-15 -0.73592443D-16
  0.17760036D-15  0.17176734D-15  0.53532376D-16  0.10673284D-16  0.10322736D-16
  0.32171458D-17 -0.16730941D-15 -0.16181438D-15 -0.50430473D-16
MO    2     MO 0.0        OCC NO =    0.0000000  ORB. ENERGY =  -50.496265
 -0.67966545D+01 -0.65734283D+01 -0.20486505D+01 -0.16630716D+01  0.22244926D+01
  0.16788578D+01 -0.42397053D-12 -0.26660404D-12 -0.42234560D-13 -0.20306597D-01
 -0.12769333D-01 -0.20228769D-02  0.24483968D-01  0.15396176D-01  0.24390129D-02
  0.29109357D-01 -0.11478641D-01 -0.22670175D-01  0.31348532D-18  0.35732110D-17
  0.85867609D-18  0.35008590D-05  0.39903968D-04  0.95892975D-05 -0.54194109D-05
 -0.61772268D-04 -0.14844455D-04 -0.83975735D-03  0.25242820D-04  0.78885133D-03
 -0.13163749D-16  0.17805118D-16  0.61672329D-17  0.63886022D-06 -0.86411413D-06
 -0.29930681D-06 -0.41431552D-07  0.56039786D-07  0.19410734D-07  0.14623701D-15
  0.14143407D-15  0.44078821D-16  0.16874633D-15  0.16320411D-15  0.50863592D-16
 -0.20883758D-15 -0.20197861D-15 -0.62947912D-16  0.14154196D-15  0.13689322D-15
  0.42663637D-16 -0.45419609D-16 -0.43927869D-16 -0.13690398D-16 -0.16576825D-15
 -0.16032383D-15 -0.49965936D-16  0.77229165D-17  0.74692686D-17  0.23278448D-17
  0.62774224D-16  0.60712497D-16  0.18921433D-16  0.29880774D-16  0.28899384D-16
  0.90066757D-17  0.62983098D-16  0.60914511D-16  0.18984392D-16 -0.15626215D-15
 -0.15112995D-15 -0.47100605D-16  0.65530205D-16  0.63377962D-16  0.19752142D-16
 -0.12016964D-15 -0.11622285D-15 -0.36221585D-16  0.67461050D-16  0.65245391D-16
  0.20334138D-16 -0.24407559D-16 -0.23605929D-16 -0.73569369D-17  0.16659553D-16
  0.16112395D-16  0.50215296D-17  0.85365779D-16  0.82562065D-16  0.25730989D-16
 -0.50060403D-16 -0.48416242D-16 -0.15089228D-16  0.20688225D-16  0.20008750D-16
  0.62358535D-17 -0.72758735D-16 -0.70369080D-16 -0.21930969D-16  0.27034224D-16
  0.26146324D-16  0.81486672D-17 -0.22617202D-16 -0.21874373D-16 -0.68172865D-17
  0.13357975D-15  0.12919251D-15  0.40263664D-16 -0.60557588D-16 -0.58568662D-16
 -0.18253294D-16  0.20717444D-15  0.20037010D-15  0.62446608D-16  0.36045127D-15
  0.34861277D-15  0.10864737D-15 -0.36995750D-15 -0.35780679D-15 -0.11151275D-15
  0.44045570D-15  0.42598958D-15  0.13276234D-15 -0.13782346D-14 -0.13329685D-14
 -0.41542805D-15  0.63402386D-14  0.61320027D-14  0.19110774D-14 -0.24672672D-13
 -0.23862335D-13 -0.74368474D-14  0.96951020D-13  0.93766806D-13  0.29223018D-13
 -0.38523638D-12 -0.37258385D-12 -0.11611811D-12  0.15301570D-11  0.14799013D-11
  0.46122059D-12 -0.60760788D-11 -0.58765189D-11 -0.18314543D-11  0.24128447D-10
  0.23335984D-10  0.72728068D-11 -0.95824192D-10 -0.92676987D-10 -0.28883369D-10
  0.38053652D-09  0.36803836D-09  0.11470148D-09 -0.15107829D-08 -0.14611634D-08
 -0.45538082D-09  0.59980931D-08  0.58010945D-08  0.18079478D-08 -0.23842163D-07
 -0.23059102D-07 -0.71865150D-08  0.94988288D-07  0.91868537D-07  0.28631410D-07
 -0.37853915D-06 -0.36610658D-06 -0.11409943D-06  0.14991674D-05  0.14499294D-05
  0.45187967D-06 -0.58808096D-05 -0.56876630D-05 -0.17725961D-05  0.23230280D-04
  0.22467316D-04  0.70020809D-05 -0.97339545D-04 -0.94142570D-04 -0.29340127D-04
  0.38602498D-03  0.37334656D-03  0.11635581D-03 -0.19319204D-02 -0.18684693D-02
 -0.58232027D-03  0.39253447D-02  0.37964225D-02  0.11831791D-02  0.39382289D-02
  0.38088835D-02  0.11870626D-02 -0.19368824D-02 -0.18732683D-02 -0.58381591D-03
  0.38727307D-03  0.37455365D-03  0.11673201D-03 -0.97651314D-04 -0.94444099D-04
 -0.29434100D-04  0.23311373D-04  0.22545745D-04  0.70265238D-05 -0.59027667D-05
 -0.57088990D-05 -0.17792145D-05  0.15050845D-05  0.14556522D-05  0.45366321D-06
 -0.38010845D-06 -0.36762434D-06 -0.11457245D-06  0.95401010D-07  0.92267703D-07
  0.28755813D-07 -0.23950641D-07 -0.23164017D-07 -0.72192124D-08  0.60266443D-08
  0.58287080D-08  0.18165537D-08 -0.15183001D-08 -0.14684337D-08 -0.45764665D-09
  0.38251530D-09  0.36995214D-09  0.11529792D-09 -0.96345290D-10 -0.93180970D-10
 -0.29040438D-10  0.24265767D-10  0.23468793D-10  0.73141977D-11 -0.61123582D-11
 -0.59116068D-11 -0.18423896D-11  0.15397013D-11  0.14891321D-11  0.46409742D-12
 -0.38816497D-12 -0.37541626D-12 -0.11700085D-12  0.97773517D-13  0.94562289D-13
  0.29470935D-13 -0.24573534D-13 -0.23766453D-13 -0.74069652D-14  0.62808379D-14
  0.60745530D-14  0.18931728D-14 -0.15338175D-14 -0.14834415D-14 -0.46232393D-15
  0.37308497D-15  0.36083154D-15  0.11245543D-15 -0.23158434D-15 -0.22397829D-15
 -0.69804251D-16  0.21910955D-15  0.21191322D-15  0.66044093D-16  0.77242027D-16
  0.74705126D-16  0.23282325D-16  0.42528548D-17  0.41131760D-17  0.12818973D-17
  0.59111315D-16  0.57169891D-16  0.17817358D-16  0.17690924D-15  0.17109891D-15
  0.53324057D-16 -0.49853609D-20 -0.48216240D-20 -0.15026896D-20 -0.16388630D-15
 -0.15850370D-15 -0.49398679D-16  0.28592823D-16  0.27653733D-16  0.86184608D-17
  0.17849330D-15  0.17263095D-15  0.53801528D-16 -0.11660350D-15 -0.11277383D-15
 -0.35146677D-16 -0.78139747D-16 -0.75573361D-16 -0.23552916D-16 -0.19830696D-16
 -0.19179386D-16 -0.59773768D-17  0.75809228D-16  0.73319385D-16  0.22850450D-16
 -0.23718504D-16 -0.22939505D-16 -0.71492417D-17  0.27819539D-16  0.26905846D-16
  0.83853771D-17  0.16962407D-15  0.16405302D-15  0.51128160D-16  0.13693410D-15
  0.13243670D-15  0.41274734D-16 -0.12863101D-15 -0.12440632D-15 -0.38772015D-16
 -0.11575669D-15 -0.11195483D-15 -0.34891430D-16  0.66003400D-16  0.63835615D-16
  0.19894773D-16 -0.54703986D-16 -0.52907313D-16 -0.16488899D-16 -0.10192230D-15
 -0.98574816D-16 -0.30721464D-16 -0.63111790D-16 -0.61038975D-16 -0.19023182D-16
  0.64892023D-16  0.62760740D-16  0.19559781D-16  0.68580114D-17  0.66327700D-17
  0.20671447D-17 -0.11639824D-15 -0.11257531D-15 -0.35084806D-16 -0.18696351D-15
 -0.18082296D-15 -0.56354619D-16  0.12872370D-15  0.12449596D-15  0.38799953D-16
  0.84945392D-16  0.82155485D-16  0.25604276D-16 -0.69924813D-16 -0.67628235D-16
 -0.21076767D-16 -0.71062201D-16 -0.68728267D-16 -0.21419599D-16  0.21262103D-15
  0.20563780D-15  0.64088320D-16  0.53547242D-16  0.51788561D-16  0.16140232D-16
 -0.30535927D-15 -0.29533019D-15 -0.92041522D-16  0.14647480D-15  0.14166405D-15
  0.44150498D-16 -0.45508968D-16 -0.44014292D-16 -0.13717332D-16
MO    3     MO 0.0        OCC NO =    0.0000000  ORB. ENERGY =  -48.695139
  0.44047630D-02  0.42600950D-02  0.13276855D-02  0.10833717D-02 -0.14490971D-02
 -0.10936552D-02  0.37701687D-10  0.23707832D-10  0.37557189D-11  0.44426517D-03
  0.27936586D-03  0.44256246D-04  0.37698175D+02  0.23705624D+02  0.37553692D+01