O atom in a box                         
   1.00000000000000     
    10.000000    0.000000    0.000000
     0.000000   10.000000    0.000000
     0.000000    0.000000   10.000000
   O 
     1
Direct
  0.000000  0.000000  0.000000
 
    2    2    2
 0.78406017013E+04 0.76183317989E+04 0.69152372686E+04 0.57266471577E+04 0.42389208413E+04
 0.27997693980E+04 0.17000399565E+04 0.10024522914E+04
augment
