 &FCI NORB= 10,NELEC=  2,MS2= 0,
  ORBSYM=1,1,1,2,3,5,5,5,6,7,
  ISYM=1,
 /
  0.6589928924251115E+00   1   1   1   1
 -0.1579120600146539E+00   2   1   1   1
  0.8494356722711945E-01   2   1   2   1
  0.4531528099520849E+00   2   2   1   1
 -0.7527067703171997E-01   2   2   2   1
  0.3596814503593264E+00   2   2   2   2
  0.5365181467400544E-01   3   1   1   1
 -0.3436759790934669E-01   3   1   2   1
  0.2670862235155885E-01   3   1   2   2
  0.7790715784803787E-01   3   1   3   1
 -0.6364607078024878E-01   3   2   1   1
  0.3096416590662709E-01   3   2   2   1
 -0.3155127014019374E-01   3   2   2   2
 -0.3205547117968783E-01   3   2   3   1
  0.2502200110399402E-01   3   2   3   2
  0.6248655565606948E+00   3   3   1   1
 -0.1366724625421627E+00   3   3   2   1
  0.4333702405080572E+00   3   3   2   2
  0.3056450947433675E-02   3   3   3   1
 -0.5256808211998809E-01   3   3   3   2
  0.6590769373097765E+00   3   3   3   3
  0.6492288066449040E+00   4   4   1   1
 -0.1388252292100033E+00   4   4   2   1
  0.4413871206242768E+00   4   4   2   2
  0.5728938508840581E-01   4   4   3   1
 -0.6006002487351203E-01   4   4   3   2
  0.6092803869097325E+00   4   4   3   3
  0.7015780957966676E+00   4   4   4   4
  0.6492288066449040E+00   5   5   1   1
 -0.1388252292100033E+00   5   5   2   1
  0.4413871206242768E+00   5   5   2   2
  0.5728938508840581E-01   5   5   3   1
 -0.6006002487351203E-01   5   5   3   2
  0.6092803869097325E+00   5   5   3   3
  0.6282035681571579E+00   5   5   4   4
  0.7015780957966676E+00   5   5   5   5
  0.3845156823376538E+00   6   6   1   1
 -0.3402613547076627E-01   6   6   2   1
  0.3203537415433984E+00   6   6   2   2
 -0.1859780062962116E-01   6   6   3   1
 -0.1626336772228065E-01   6   6   3   2
  0.4039557468001080E+00   6   6   3   3
  0.3823145550824423E+00   6   6   4   4
  0.3823145550824423E+00   6   6   5   5
  0.3345943155376938E+00   6   6   6   6
 -0.1395306082321789E+00   7   6   1   1
  0.5335846565304321E-01   7   6   2   1
 -0.6791664567074794E-01   7   6   2   2
  0.6906533053414182E-02   7   6   3   1
  0.1192486930057060E-01   7   6   3   2
 -0.1462172450814585E+00   7   6   3   3
 -0.1326512586732222E+00   7   6   4   4
 -0.1326512586732222E+00   7   6   5   5
 -0.5060129771436959E-01   7   6   6   6
  0.6059210377952688E-01   7   6   7   6
  0.5808289709445676E+00   7   7   1   1
 -0.1313680361395815E+00   7   7   2   1
  0.4130447066420785E+00   7   7   2   2
 -0.1354174986862650E-01   7   7   3   1
 -0.3216162023254898E-01   7   7   3   2
  0.5901562550389607E+00   7   7   3   3
  0.5564405483104509E+00   7   7   4   4
  0.5564405483104509E+00   7   7   5   5
  0.3807739883441239E+00   7   7   6   6
 -0.1353050365829870E+00   7   7   7   6
  0.5749830878638093E+00   7   7   7   7
  0.1723733370802647E-01   8   6   1   1
 -0.1630279003800384E-01   8   6   2   1
  0.1108473387530180E-01   8   6   2   2
  0.3232196658282631E-01   8   6   3   1
 -0.6391296531965573E-02   8   6   3   2
 -0.2290397367701091E-01   8   6   3   3
  0.1586324378634093E-01   8   6   4   4
  0.1586324378634093E-01   8   6   5   5
 -0.1673184434774664E-01   8   6   6   6
  0.5053900651243232E-02   8   6   7   6
 -0.5940437740046648E-02   8   6   7   7
  0.2640710973290625E-01   8   6   8   6
 -0.1109266277732656E+00   8   7   1   1
  0.6871731581209078E-01   8   7   2   1
 -0.5914516327142055E-01   8   7   2   2
 -0.5694122082914720E-01   8   7   3   1
  0.2539607604659735E-01   8   7   3   2
 -0.4436184281856037E-01   8   7   3   3
 -0.9476556569302874E-01   8   7   4   4
 -0.9476556569302874E-01   8   7   5   5
 -0.1687183287037007E-02   8   7   6   6
  0.2416826728708267E-01   8   7   7   6
 -0.6899548517838071E-01   8   7   7   7
 -0.4283373668195174E-01   8   7   8   6
  0.1010312555837254E+00   8   7   8   7
  0.6688507361084332E+00   8   8   1   1
 -0.1703300940308119E+00   8   8   2   1
  0.4633373940342185E+00   8   8   2   2
  0.7810607725862950E-02   8   8   3   1
 -0.5797457722569069E-01   8   8   3   2
  0.6790900627861650E+00   8   8   3   3
  0.6294652893979178E+00   8   8   4   4
  0.6294652893979178E+00   8   8   5   5
  0.4117580538202884E+00   8   8   6   6
 -0.1624210762353042E+00   8   8   7   6
  0.6390764765046886E+00   8   8   7   7
 -0.7828380988489148E-02   8   8   8   6
 -0.9728809097048041E-01   8   8   8   7
  0.7664517603292302E+00   8   8   8   8
  0.5978188936684086E+00   9   9   1   1
 -0.1111040802236444E+00   9   9   2   1
  0.4185388039073908E+00   9   9   2   2
  0.3155385324192683E-02   9   9   3   1
 -0.3921429222310230E-01   9   9   3   2
  0.5881780458412582E+00   9   9   3   3
  0.6353956541297013E+00   9   9   4   4
  0.5784683149570332E+00   9   9   5   5
  0.3908762104035969E+00   9   9   6   6
 -0.1315421232107710E+00   9   9   7   6
  0.5516565910650106E+00   9   9   7   7
 -0.3900100848863941E-02   9   9   8   6
 -0.5718040747616671E-01   9   9   8   7
  0.6079633103784374E+00   9   9   8   8
  0.6273759381091796E+00   9   9   9   9
  0.5978188936684086E+00  10  10   1   1
 -0.1111040802236444E+00  10  10   2   1
  0.4185388039073908E+00  10  10   2   2
  0.3155385324192683E-02  10  10   3   1
 -0.3921429222310230E-01  10  10   3   2
  0.5881780458412582E+00  10  10   3   3
  0.5784683149570332E+00  10  10   4   4
  0.6353956541297013E+00  10  10   5   5
  0.3908762104035969E+00  10  10   6   6
 -0.1315421232107710E+00  10  10   7   6
  0.5516565910650106E+00  10  10   7   7
 -0.3900100848863941E-02  10  10   8   6
 -0.5718040747616671E-01  10  10   8   7
  0.6079633103784374E+00  10  10   8   8
  0.5652596392356541E+00  10  10   9   9
  0.6273759381091796E+00  10  10  10  10
  0.1226743888596349E+00   4   1   4   1
 -0.2537647837428208E-01   4   2   4   1
  0.1431554515464033E-01   4   2   4   2
  0.3135570547809222E-01   4   3   4   1
 -0.1205232735535710E-01   4   3   4   2
  0.3664954901173285E-01   4   3   4   3
  0.5674655639851228E-01   9   6   4   1
 -0.5958971969865157E-02   9   6   4   2
 -0.2242381028010870E-02   9   6   4   3
  0.3792704574452683E-01   9   6   9   6
 -0.7327264023450922E-01   9   7   4   1
  0.1594795295873620E-01   9   7   4   2
  0.9913552644631714E-03   9   7   4   3
 -0.4346068670645557E-01   9   7   9   6
  0.6027917069509199E-01   9   7   9   7
  0.2790500400807287E-01   9   8   4   1
 -0.9974123662482222E-02   9   8   4   2
  0.2060127102793915E-01   9   8   4   3
  0.3844213283170816E-02   9   8   9   6
 -0.8653745300255880E-02   9   8   9   7
  0.2206361653936072E-01   9   8   9   8
  0.1226743888596349E+00   5   1   5   1
 -0.2537647837428208E-01   5   2   5   1
  0.1431554515464033E-01   5   2   5   2
  0.3135570547809222E-01   5   3   5   1
 -0.1205232735535710E-01   5   3   5   2
  0.3664954901173285E-01   5   3   5   3
  0.5674655639851228E-01  10   6   5   1
 -0.5958971969865157E-02  10   6   5   2
 -0.2242381028010870E-02  10   6   5   3
  0.3792704574452683E-01  10   6  10   6
 -0.7327264023450922E-01  10   7   5   1
  0.1594795295873620E-01  10   7   5   2
  0.9913552644631714E-03  10   7   5   3
 -0.4346068670645557E-01  10   7  10   6
  0.6027917069509199E-01  10   7  10   7
  0.2790500400807287E-01  10   8   5   1
 -0.9974123662482222E-02  10   8   5   2
  0.2060127102793915E-01  10   8   5   3
  0.3844213283170816E-02  10   8  10   6
 -0.8653745300255880E-02  10   8  10   7
  0.2206361653936072E-01  10   8  10   8
  0.3668726381975478E-01   5   4   5   4
  0.2846366958633405E-01  10   9   5   4
  0.3105814952328636E-01  10   9  10   9
  0.5599850750352278E-01   6   1   6   1
  0.2414659379645016E-01   6   2   6   1
  0.3886695279139544E-01   6   2   6   2
 -0.4588598629448157E-01   6   3   6   1
 -0.1639914546418211E-01   6   3   6   2
  0.5086365326153863E-01   6   3   6   3
 -0.6859578922094309E-01   7   1   6   1
  0.9149459766677863E-03   7   1   6   2
  0.5739398816002087E-01   7   1   6   3
  0.1192479157622265E+00   7   1   7   1
  0.4818803066821362E-01   7   2   6   1
  0.1338197336461936E-01   7   2   6   2
 -0.3273520735573914E-01   7   2   6   3
 -0.7267694993748873E-01   7   2   7   1
  0.5694186440984110E-01   7   2   7   2
  0.6716148800969587E-01   7   3   6   1
  0.1956959132551412E-01   7   3   6   2
 -0.7230482277516544E-01   7   3   6   3
 -0.9173887938320349E-01   7   3   7   1
  0.5534453537962847E-01   7   3   7   2
  0.1136049398188660E+00   7   3   7   3
  0.1525469661091511E-01   8   1   6   1
 -0.1313087177552940E-01   8   1   6   2
  0.7230448640323885E-02   8   1   6   3
 -0.4595424195467000E-01   8   1   7   1
  0.3617397299693778E-01   8   1   7   2
 -0.5924625797812522E-02   8   1   7   3
  0.6357221422501430E-01   8   1   8   1
 -0.2439271306951916E-01   8   2   6   1
  0.9363573332672608E-02   8   2   6   2
  0.1476542192295836E-01   8   2   6   3
  0.5549777252135214E-01   8   2   7   1
 -0.3725675254496653E-01   8   2   7   2
 -0.2228053322332862E-01   8   2   7   3
 -0.4329778964303617E-01   8   2   8   1
  0.4244482249897474E-01   8   2   8   2
  0.6993226855453558E-01   8   3   6   1
  0.2535772296675038E-01   8   3   6   2
 -0.7331810199365714E-01   8   3   6   3
 -0.8854030770106480E-01   8   3   7   1
  0.5256768137699264E-01   8   3   7   2
  0.1027736442217650E+00   8   3   7   3
 -0.2716749272824781E-02   8   3   8   1
 -0.2829370123986349E-01   8   3   8   2
  0.1241187774141119E+00   8   3   8   3
  0.7797607327167069E-01   9   4   6   1
  0.1917602969451017E-01   9   4   6   2
 -0.5980080997310828E-01   9   4   6   3
 -0.1080735652995058E+00   9   4   7   1
  0.6521850981067374E-01   9   4   7   2
  0.8874258119466924E-01   9   4   7   3
  0.3330527025213803E-01   9   4   8   1
 -0.3814815253484133E-01   9   4   8   2
  0.9188831711625067E-01   9   4   8   3
  0.1503230548670254E+00   9   4   9   4
  0.7797607327167069E-01  10   5   6   1
  0.1917602969451017E-01  10   5   6   2
 -0.5980080997310828E-01  10   5   6   3
 -0.1080735652995058E+00  10   5   7   1
  0.6521850981067374E-01  10   5   7   2
  0.8874258119466924E-01  10   5   7   3
  0.3330527025213803E-01  10   5   8   1
 -0.3814815253484133E-01  10   5   8   2
  0.9188831711625067E-01  10   5   8   3
  0.1110399398768291E+00  10   5   9   4
  0.1503230548670254E+00  10   5  10   5
  0.1618345036286677E-01   6   4   6   4
 -0.2100654516715691E-01   7   4   6   4
  0.3311885128536493E-01   7   4   7   4
  0.5080109237261391E-02   8   4   6   4
 -0.1107666586361340E-01   8   4   7   4
  0.1678107987963208E-01   8   4   8   4
  0.2929331979750947E-01   9   1   6   4
 -0.4158927846888510E-01   9   1   7   4
  0.1407852553086394E-01   9   1   8   4
  0.5577154873080632E-01   9   1   9   1
 -0.2049389382815229E-02   9   2   6   4
  0.9120022530668485E-02   9   2   7   4
 -0.6576797537422702E-02   9   2   8   4
 -0.7775936466289544E-02   9   2   9   1
  0.7541307648629776E-02   9   2   9   2
 -0.1651310713532870E-01   9   3   6   4
  0.2091584392524161E-01   9   3   7   4
  0.7243207308009203E-02   9   3   8   4
 -0.2710678052686818E-01   9   3   9   1
  0.4982407139868901E-03   9   3   9   2
  0.3004026658226388E-01   9   3   9   3
  0.1618345036286677E-01   6   5   6   5
 -0.2100654516715691E-01   7   5   6   5
  0.3311885128536493E-01   7   5   7   5
  0.5080109237261391E-02   8   5   6   5
 -0.1107666586361340E-01   8   5   7   5
  0.1678107987963208E-01   8   5   8   5
  0.2929331979750947E-01  10   1   6   5
 -0.4158927846888510E-01  10   1   7   5
  0.1407852553086394E-01  10   1   8   5
  0.5577154873080632E-01  10   1  10   1
 -0.2049389382815229E-02  10   2   6   5
  0.9120022530668485E-02  10   2   7   5
 -0.6576797537422702E-02  10   2   8   5
 -0.7775936466289544E-02  10   2  10   1
  0.7541307648629776E-02  10   2  10   2
 -0.1651310713532870E-01  10   3   6   5
  0.2091584392524161E-01  10   3   7   5
  0.7243207308009203E-02  10   3   8   5
 -0.2710678052686818E-01  10   3  10   1
  0.4982407139868901E-03  10   3  10   2
  0.3004026658226388E-01  10   3  10   3
  0.1964155745844586E-01   9   5   9   5
  0.1964155748480720E-01  10   4   9   5
  0.1964155745844586E-01  10   4  10   4
 -0.1251399119550580E+01   1   1   0   0
  0.1579120597730392E+00   2   1   0   0
 -0.3420795580266878E+00   2   2   0   0
 -0.5365181469852154E-01   3   1   0   0
  0.9292454365115077E-01   3   2   0   0
  0.7850339492919831E+00   3   3   0   0
  0.1170456984199682E+00   4   4   0   0
  0.1170456984199682E+00   5   5   0   0
 -0.5155928933326616E+00   6   6   0   0
  0.2104654272434150E+00   7   6   0   0
 -0.1051588891221880E+00   7   7   0   0
 -0.1921997080513882E-01   8   6   0   0
  0.1758990135918622E+00   8   7   0   0
  0.2335629940780133E+01   8   8   0   0
  0.9035054979531029E+00   9   9   0   0
  0.9035054979531029E+00  10  10   0   0
  0.7151043364864863E+00   0   0   0   0
