 H2 Optimization
GAUSSIAN             70 MOL ORBITALS     74 PRIMITIVES        2 NUCLEI
  H    1    (CENTRE  1)   2.11057834  0.00000000  0.00000000  CHARGE =  1.0
  H    2    (CENTRE  2)   0.72401086  0.00000000  0.00000000  CHARGE =  1.0
CENTRE ASSIGNMENTS    1  1  1  1  1  1  1  1  1  1  1  1  1  1  1  1  1  1  1  1
CENTRE ASSIGNMENTS    1  1  1  1  1  1  1  1  1  1  1  1  1  1  1  1  1  2  2  2
CENTRE ASSIGNMENTS    2  2  2  2  2  2  2  2  2  2  2  2  2  2  2  2  2  2  2  2
CENTRE ASSIGNMENTS    2  2  2  2  2  2  2  2  2  2  2  2  2  2
TYPE ASSIGNMENTS      1  1  1  1  1  1  2  3  4  2  3  4  2  3  4  5  6  7  8  9
TYPE ASSIGNMENTS     10  5  6  7  8  9 10 11 12 13 17 14 15 18 19 16 20  1  1  1
TYPE ASSIGNMENTS      1  1  1  2  3  4  2  3  4  2  3  4  5  6  7  8  9 10  5  6
TYPE ASSIGNMENTS      7  8  9 10 11 12 13 17 14 15 18 19 16 20
EXPONENTS  0.8264000D+02 0.1241000D+02 0.2824000D+01 0.7977000D+00 0.2581000D+00
EXPONENTS  0.8989000D-01 0.2292000D+01 0.2292000D+01 0.2292000D+01 0.8380000D+00
EXPONENTS  0.8380000D+00 0.8380000D+00 0.2920000D+00 0.2920000D+00 0.2920000D+00
EXPONENTS  0.2062000D+01 0.2062000D+01 0.2062000D+01 0.2062000D+01 0.2062000D+01
EXPONENTS  0.2062000D+01 0.6620000D+00 0.6620000D+00 0.6620000D+00 0.6620000D+00
EXPONENTS  0.6620000D+00 0.6620000D+00 0.1397000D+01 0.1397000D+01 0.1397000D+01
EXPONENTS  0.1397000D+01 0.1397000D+01 0.1397000D+01 0.1397000D+01 0.1397000D+01
EXPONENTS  0.1397000D+01 0.1397000D+01 0.8264000D+02 0.1241000D+02 0.2824000D+01
EXPONENTS  0.7977000D+00 0.2581000D+00 0.8989000D-01 0.2292000D+01 0.2292000D+01
EXPONENTS  0.2292000D+01 0.8380000D+00 0.8380000D+00 0.8380000D+00 0.2920000D+00
EXPONENTS  0.2920000D+00 0.2920000D+00 0.2062000D+01 0.2062000D+01 0.2062000D+01
EXPONENTS  0.2062000D+01 0.2062000D+01 0.2062000D+01 0.6620000D+00 0.6620000D+00
EXPONENTS  0.6620000D+00 0.6620000D+00 0.6620000D+00 0.6620000D+00 0.1397000D+01
EXPONENTS  0.1397000D+01 0.1397000D+01 0.1397000D+01 0.1397000D+01 0.1397000D+01
EXPONENTS  0.1397000D+01 0.1397000D+01 0.1397000D+01 0.1397000D+01
MO    1     MO 0.0        OCC NO =    2.0000000  ORB. ENERGY =   -0.596838
  0.32994511D-01  0.60877549D-01  0.98802446D-01  0.10667812D+00  0.67731096D-01
  0.11047785D-01 -0.21569943D-01 -0.19517553D-15 -0.94016557D-15 -0.13963347D-01
  0.31975477D-15  0.87438616D-15 -0.51532571D-02 -0.10134529D-15 -0.26118391D-15
  0.16956763D-01  0.54697446D-02  0.54697446D-02 -0.89946998D-16 -0.96436078D-16
  0.14813229D-14  0.12915592D-02  0.56939364D-04  0.56939364D-04 -0.45146076D-17
  0.24667362D-15 -0.21189130D-15  0.47495861D-03 -0.18217039D-15 -0.11242824D-14
  0.79248710D-03 -0.60713149D-15 -0.98383030D-15  0.79248710D-03 -0.23260361D-17
 -0.10335955D-14 -0.99115051D-15  0.32994511D-01  0.60877549D-01  0.98802446D-01
  0.10667812D+00  0.67731096D-01  0.11047785D-01  0.21569943D-01  0.10420845D-14
  0.15334190D-14  0.13963347D-01 -0.95868957D-15 -0.14345586D-14  0.51532571D-02
  0.86118701D-16  0.29461211D-15  0.16956763D-01  0.54697446D-02  0.54697446D-02
  0.17106399D-15 -0.11711193D-15 -0.13720174D-14  0.12915592D-02  0.56939364D-04
  0.56939364D-04  0.13640982D-15  0.35177226D-15  0.11155340D-15 -0.47495861D-03
  0.12988373D-14  0.15773471D-14 -0.79248710D-03  0.81754914D-15  0.20585410D-14
 -0.79248710D-03  0.12586744D-14  0.16483262D-14 -0.88978111D-15
MO    2     MO 0.0        OCC NO =    0.0000000  ORB. ENERGY =    0.144565
  0.15198524D-01  0.28042510D-01  0.45512157D-01  0.41516632D+00 -0.11972224D+00
  0.34466000D+00  0.25289732D+00  0.74920793D-16  0.54109431D-15 -0.55013230D+00
 -0.64756168D-16 -0.79146282D-15 -0.60047777D-01  0.27387738D-16  0.22286757D-16
  0.15820331D+00  0.27970450D-01  0.27970450D-01  0.48442735D-15  0.37420625D-15
  0.45962161D-16  0.24013321D+00  0.99795622D-01  0.99795622D-01  0.10546896D-15
  0.11980977D-15 -0.75138491D-16  0.20669681D+00 -0.15899508D-15  0.91711447D-15
  0.28885737D+00 -0.54540923D-15  0.46933940D-15  0.28885737D+00 -0.18790055D-15
  0.92530719D-15  0.96236585D-17 -0.15198524D-01 -0.28042510D-01 -0.45512157D-01
 -0.41516632D+00  0.11972224D+00 -0.34466000D+00  0.25289732D+00 -0.46141068D-15
 -0.64150979D-15 -0.55013230D+00  0.66917460D-15  0.10826134D-14 -0.60047777D-01
 -0.52548212D-16 -0.34498350D-16 -0.15820331D+00 -0.27970450D-01 -0.27970450D-01
  0.52496726D-15  0.29559335D-15 -0.13990988D-15 -0.24013321D+00 -0.99795622D-01
 -0.99795622D-01  0.72493832D-16  0.94759696D-16  0.86682567D-16  0.20669681D+00
 -0.63803074D-15 -0.12679341D-14  0.28885737D+00 -0.35908259D-15 -0.93161995D-15
  0.28885737D+00 -0.61341526D-15 -0.13277182D-14  0.15213210D-15
MO    3     MO 0.0        OCC NO =    0.0000000  ORB. ENERGY =    0.209605
 -0.20094976D-03 -0.37076861D-03 -0.60174639D-03 -0.94740653D-01  0.39179248D+00
 -0.12998440D+00  0.15799810D+00  0.10253071D-14  0.61252738D-15 -0.23108953D+00
 -0.32588312D-15 -0.27856033D-15  0.24951558D-01  0.52652148D-16  0.58867735D-18
 -0.10588616D+00 -0.73514210D-01 -0.73514210D-01  0.51628053D-15 -0.24596385D-14
  0.19197562D-15 -0.17085038D+00 -0.15110097D+00 -0.15110097D+00 -0.41231778D-15
 -0.19225120D-15 -0.86102845D-16  0.31725621D+00  0.57248925D-15  0.73029044D-15
  0.20342838D+00  0.16901868D-14  0.21987531D-14  0.20342838D+00  0.56294653D-15
  0.66436372D-15 -0.81472476D-15 -0.20094976D-03 -0.37076861D-03 -0.60174639D-03
 -0.94740653D-01  0.39179248D+00 -0.12998440D+00 -0.15799810D+00  0.66127023D-15
 -0.57182778D-15  0.23108953D+00 -0.10247615D-14  0.27778857D-15 -0.24951558D-01
 -0.42258070D-17 -0.36437931D-16 -0.10588616D+00 -0.73514210D-01 -0.73514210D-01
 -0.42982791D-14 -0.25569938D-14  0.10388358D-14 -0.17085038D+00 -0.15110097D+00
 -0.15110097D+00 -0.28448340D-16 -0.16350946D-15 -0.17527093D-15 -0.31725621D+00
  0.11598190D-14 -0.60685671D-15 -0.20342838D+00 -0.46567377D-15 -0.23681763D-14
 -0.20342838D+00  0.11567849D-14 -0.69623910D-15 -0.96647117D-15
MO    4     MO 0.0        OCC NO =    0.0000000  ORB. ENERGY =    0.460401
 -0.43778451D-16 -0.80774792D-16 -0.13109508D-15  0.22279925D-15  0.89262322D-15
 -0.53458275D-15  0.64296223D-14  0.63803026D+00 -0.18006237D+01 -0.71403729D-14
 -0.64738667D+00  0.18270290D+01  0.48621322D-15  0.84828152D-01 -0.23939865D+00
 -0.46084214D-15 -0.45713005D-15 -0.21748361D-15  0.25688049D-02 -0.72495793D-02
 -0.27239204D-14  0.10639264D-15 -0.25201840D-15 -0.25644411D-15 -0.27294794D-02
  0.77030283D-02 -0.70751822D-15  0.81550393D-14  0.72698142D+00 -0.20516581D+01
  0.76826536D-14  0.72117899D+00 -0.20352827D+01  0.72498444D-14  0.72698142D+00
 -0.20516581D+01 -0.12163349D-14 -0.47710185D-16 -0.88029161D-16 -0.14286870D-15
 -0.10016967D-15 -0.85882083D-15  0.55241888D-15  0.18764845D-14  0.63803026D+00
 -0.18006237D+01 -0.23908754D-14 -0.64738667D+00  0.18270290D+01  0.13055925D-15
  0.84828152D-01 -0.23939865D+00 -0.13102451D-14 -0.53947131D-16 -0.40646180D-15
 -0.25688049D-02  0.72495793D-02 -0.25986927D-14  0.27489246D-15  0.11696159D-15
  0.10692899D-15  0.27294794D-02 -0.77030283D-02  0.24865278D-15  0.17571062D-14
  0.72698142D+00 -0.20516581D+01  0.31088754D-14  0.72117899D+00 -0.20352827D+01
  0.19783227D-14  0.72698142D+00 -0.20516581D+01  0.46053351D-14
MO    5     MO 0.0        OCC NO =    0.0000000  ORB. ENERGY =    0.460401
 -0.72329222D-15 -0.13345328D-14 -0.21659070D-14  0.52661889D-14 -0.11152437D-14
  0.14311186D-15  0.75693234D-14 -0.18006237D+01 -0.63803026D+00 -0.10327993D-13
  0.18270290D+01  0.64738667D+00  0.30488170D-15 -0.23939865D+00 -0.84828152D-01
 -0.34489436D-14 -0.70474593D-14 -0.59119545D-14 -0.72495793D-02 -0.25688049D-02
  0.14424235D-14  0.86894277D-15 -0.20308240D-15 -0.17244168D-15  0.77030283D-02
  0.27294794D-02 -0.73625695D-15  0.70632384D-14 -0.20516581D+01 -0.72698142D+00
  0.88654980D-14 -0.20352827D+01 -0.72117899D+00  0.82357069D-14 -0.20516581D+01
 -0.72698142D+00  0.51697174D-14 -0.70455170D-15 -0.12999550D-14 -0.21097883D-14
 -0.77349749D-15  0.19953858D-14 -0.23107036D-15  0.91629648D-14 -0.18006237D+01
 -0.63803026D+00 -0.12625547D-13  0.18270290D+01  0.64738667D+00  0.49849648D-15
 -0.23939865D+00 -0.84828152D-01 -0.77092577D-14 -0.73190308D-14 -0.67340227D-14
  0.72495793D-02  0.25688049D-02 -0.95185183D-15 -0.25203359D-14 -0.14453566D-14
 -0.14155128D-14 -0.77030283D-02 -0.27294794D-02  0.70809761D-15  0.11545031D-13
 -0.20516581D+01 -0.72698142D+00  0.10856139D-13 -0.20352827D+01 -0.72117899D+00
  0.10704771D-13 -0.20516581D+01 -0.72698142D+00  0.33843163D-14
MO    6     MO 0.0        OCC NO =    0.0000000  ORB. ENERGY =    0.491547
 -0.22804921D-02 -0.42076929D-02 -0.68289600D-02  0.10505504D+01 -0.46919464D+00
  0.37121983D+00  0.50354537D+00  0.14898201D-14 -0.21661279D-14 -0.14535477D+01
 -0.15173658D-14  0.23727981D-14 -0.28348579D+00  0.29622071D-15 -0.19495382D-15
  0.44508096D+00  0.57262479D-01  0.57262479D-01 -0.41853673D-15 -0.31455908D-15
  0.55918413D-16  0.69570607D+00  0.28547459D+00  0.28547459D+00  0.11984643D-15
 -0.13650643D-15 -0.15234408D-15  0.41250883D+00  0.16467983D-14 -0.24020030D-14
  0.65567034D+00  0.19326869D-14 -0.22644627D-14  0.65567034D+00  0.14245121D-14
 -0.23479433D-14 -0.40351073D-16  0.22804921D-02  0.42076929D-02  0.68289600D-02
 -0.10505504D+01  0.46919464D+00 -0.37121983D+00  0.50354537D+00  0.10730139D-14
 -0.23517213D-14 -0.14535477D+01 -0.12015840D-14  0.23582911D-14 -0.28348579D+00
  0.16174496D-15 -0.43586004D-15 -0.44508096D+00 -0.57262479D-01 -0.57262479D-01
 -0.27767404D-15 -0.19507396D-15 -0.17634524D-15 -0.69570607D+00 -0.28547459D+00
 -0.28547459D+00 -0.16126175D-16 -0.34249461D-15  0.76722212D-16  0.41250883D+00
  0.15672138D-14 -0.28389874D-14  0.65567034D+00  0.14825524D-14 -0.29184575D-14
  0.65567034D+00  0.15221277D-14 -0.29957669D-14  0.27445369D-15
MO    7     MO 0.0        OCC NO =    0.0000000  ORB. ENERGY =    0.749576
  0.81275046D-02  0.14995905D-01  0.24337907D-01 -0.27275732D-01 -0.30367531D+00
  0.61398153D-01 -0.20822832D+01 -0.30849781D-13 -0.13599888D-13  0.23214050D+01
  0.31013222D-13  0.13515834D-13 -0.53751057D+00 -0.76963033D-14 -0.29072043D-14
  0.59959259D-02  0.79088414D-01  0.79088414D-01  0.40695604D-15 -0.10209567D-15
 -0.16185210D-14  0.25169163D+00  0.22650454D-01  0.22650454D-01  0.36699710D-14
  0.16816902D-14  0.78045405D-15 -0.27334044D+01 -0.34684354D-13 -0.14954171D-13
 -0.23746049D+01 -0.40652100D-13 -0.16931732D-13 -0.23746049D+01 -0.33878030D-13
 -0.15190673D-13 -0.11097918D-14  0.81275046D-02  0.14995905D-01  0.24337907D-01
 -0.27275732D-01 -0.30367531D+00  0.61398153D-01  0.20822832D+01  0.32756868D-13
  0.80802890D-14 -0.23214050D+01 -0.32042970D-13 -0.75006228D-14  0.53751057D+00
  0.79446736D-14  0.25311289D-14  0.59959259D-02  0.79088414D-01  0.79088414D-01
  0.43877735D-14  0.19730840D-14 -0.86610742D-15  0.25169163D+00  0.22650454D-01
  0.22650454D-01  0.31877047D-14  0.14905106D-14 -0.14102853D-15  0.27334044D+01
  0.35276918D-13  0.79290929D-14  0.23746049D+01  0.40270987D-13  0.99803310D-14
  0.23746049D+01  0.35269986D-13  0.78768081D-14 -0.12422060D-14
MO    8     MO 0.0        OCC NO =    0.0000000  ORB. ENERGY =    0.766056
 -0.97601506D-15 -0.18008269D-14 -0.29226884D-14  0.83037312D-14  0.67375931D-14
 -0.32487968D-15  0.21794958D-13 -0.20112302D+01  0.16648224D+01 -0.29499281D-13
  0.19963799D+01 -0.16525298D+01  0.89006347D-15 -0.52371587D+00  0.43351271D+00
 -0.46437235D-14 -0.93446850D-14 -0.82022681D-14  0.96167636D-01 -0.79604029D-01
 -0.73318059D-15  0.10138764D-14 -0.69208624D-15 -0.98258692D-15  0.23050325D+00
 -0.19080210D+00 -0.60438534D-15  0.25308102D-13 -0.22065217D+01  0.18264774D+01
  0.24822932D-13 -0.25442734D+01  0.21060559D+01  0.26299207D-13 -0.22065217D+01
  0.18264774D+01  0.10749056D-14 -0.97575303D-15 -0.18003435D-14 -0.29219038D-14
 -0.37101934D-14 -0.11107894D-14 -0.61438742D-15 -0.13374267D-14  0.20112302D+01
 -0.16648224D+01 -0.41001300D-14 -0.19963799D+01  0.16525298D+01 -0.54051463D-14
  0.52371587D+00 -0.43351271D+00 -0.10779350D-13 -0.96110386D-14 -0.86928776D-14
  0.96167636D-01 -0.79604029D-01 -0.84602970D-16 -0.59680354D-14 -0.19558733D-14
 -0.17964184D-14  0.23050325D+00 -0.19080210D+00 -0.10164460D-16 -0.33670514D-14
  0.22065217D+01 -0.18264774D+01 -0.30227026D-15  0.25442734D+01 -0.21060559D+01
 -0.12432136D-14  0.22065217D+01 -0.18264774D+01  0.71240689D-15
MO    9     MO 0.0        OCC NO =    0.0000000  ORB. ENERGY =    0.766056
 -0.12831537D-15 -0.23675226D-15 -0.38424186D-15  0.25336983D-14  0.36673562D-14
 -0.35188012D-15  0.20912193D-13 -0.16648224D+01 -0.20112302D+01 -0.23532077D-13
  0.16525298D+01  0.19963799D+01  0.49552368D-14 -0.43351271D+00 -0.52371587D+00
  0.68900524D-15 -0.88679667D-15 -0.16133203D-14  0.79604029D-01  0.96167636D-01
 -0.17184212D-15 -0.22704946D-14  0.38454961D-15  0.44016189D-15  0.19080210D+00
  0.23050325D+00 -0.39521629D-15  0.26611804D-13 -0.18264774D+01 -0.22065217D+01
  0.23388350D-13 -0.21060559D+01 -0.25442734D+01  0.22986857D-13 -0.18264774D+01
 -0.22065217D+01 -0.23805953D-14 -0.12835799D-15 -0.23683091D-15 -0.38436951D-15
  0.12881705D-14  0.10228873D-14 -0.75655589D-15 -0.22683719D-13  0.16648224D+01
  0.20112302D+01  0.24277284D-13 -0.16525298D+01 -0.19963799D+01 -0.67538935D-14
  0.43351271D+00  0.52371587D+00  0.36239362D-15 -0.21286771D-14 -0.59410165D-15
  0.79604029D-01  0.96167636D-01  0.44432424D-15 -0.32042320D-14  0.30514061D-15
  0.10511077D-15  0.19080210D+00  0.23050325D+00  0.15846021D-15 -0.29233909D-13
  0.18264774D+01  0.22065217D+01 -0.25062358D-13  0.21060559D+01  0.25442734D+01
 -0.26473294D-13  0.18264774D+01  0.22065217D+01  0.86956454D-15
MO   10     MO 0.0        OCC NO =    0.0000000  ORB. ENERGY =    1.048942
 -0.68651580D-01 -0.12666773D+00 -0.20557795D+00 -0.78308107D+00  0.82651747D+00
 -0.93479487D-01 -0.37827905D+00  0.42112868D-14 -0.86195201D-14  0.36374346D+00
 -0.44611441D-14  0.91662390D-14 -0.15376438D+00 -0.22114846D-16 -0.17630558D-14
 -0.34861525D+00 -0.16142352D+00 -0.16142352D+00 -0.17497224D-14 -0.33053253D-14
 -0.78598192D-15 -0.52580066D+00 -0.56529469D+00 -0.56529469D+00 -0.12640624D-15
  0.21612044D-14  0.94795399D-16 -0.20375268D+00  0.59700572D-14 -0.10300338D-13
 -0.44354859D+00  0.71483731D-14 -0.13740855D-13 -0.44354859D+00  0.88066011D-14
 -0.10149826D-13 -0.42888105D-15 -0.68651580D-01 -0.12666773D+00 -0.20557795D+00
 -0.78308107D+00  0.82651747D+00 -0.93479487D-01  0.37827905D+00  0.77389717D-14
  0.25126169D-14 -0.36374346D+00 -0.86800649D-14 -0.17870943D-14  0.15376438D+00
  0.52266275D-15  0.13843855D-14 -0.34861525D+00 -0.16142352D+00 -0.16142352D+00
  0.13416843D-15  0.46758021D-14 -0.35221277D-15 -0.52580066D+00 -0.56529469D+00
 -0.56529469D+00 -0.38761303D-15  0.65874722D-15 -0.78594206D-15  0.20375268D+00
  0.11039237D-13  0.36886214D-14  0.44354859D+00  0.74412816D-14  0.34049425D-14
  0.44354859D+00  0.67691786D-14  0.25995702D-14  0.18727254D-14
MO   11     MO 0.0        OCC NO =    0.0000000  ORB. ENERGY =    1.070003
  0.51470532D-03  0.94967307D-03  0.15412911D-02  0.25578327D+01  0.63827779D+01
  0.32821919D-01  0.66038824D+00 -0.14717326D-14 -0.14679604D-15 -0.34454194D+01
  0.28781345D-14  0.79693539D-15 -0.33179935D+01  0.38461476D-15 -0.27535948D-16
  0.88263535D+00 -0.46625945D-01 -0.46625945D-01 -0.17439435D-14  0.12946541D-14
 -0.57286370D-15  0.16588291D+01  0.28726762D-01  0.28726762D-01 -0.97189145D-15
 -0.32935732D-17 -0.32563272D-15  0.20692996D+00 -0.29203151D-14 -0.14766336D-14
  0.11737498D+01 -0.55935075D-15 -0.26663084D-14  0.11737498D+01 -0.32560816D-14
 -0.17222222D-14 -0.26689080D-15 -0.51470532D-03 -0.94967307D-03 -0.15412911D-02
 -0.25578327D+01 -0.63827779D+01 -0.32821919D-01  0.66038824D+00 -0.31531618D-14
 -0.46340864D-14 -0.34454194D+01  0.20044856D-14  0.61116531D-14 -0.33179935D+01
 -0.66741320D-15 -0.12802480D-15 -0.88263535D+00  0.46625945D-01  0.46625945D-01
 -0.14290887D-14  0.16912036D-14 -0.10480939D-14 -0.16588291D+01 -0.28726762D-01
 -0.28726762D-01 -0.11211827D-14 -0.23734264D-15  0.69801188D-15  0.20692996D+00
 -0.21164211D-14 -0.75314783D-14  0.11737498D+01 -0.40209326D-14 -0.72857466D-14
  0.11737498D+01 -0.21572710D-14 -0.73485169D-14  0.95960657D-15
MO   12     MO 0.0        OCC NO =    0.0000000  ORB. ENERGY =    1.349788
 -0.76358854D-01 -0.14088828D+00 -0.22865748D+00 -0.28297008D+01  0.16981532D+01
 -0.28524758D+00 -0.13025210D+01  0.36574659D-14  0.18355769D-14  0.31406079D+01
 -0.37568828D-14 -0.29957427D-14 -0.41343452D-01  0.18603500D-15  0.29398675D-16
 -0.89530275D+00 -0.12402246D+00 -0.12402246D+00  0.89323875D-16  0.15661136D-14
  0.14406916D-15 -0.15926321D+01 -0.79044171D+00 -0.79044171D+00  0.17936790D-15
  0.14331266D-14 -0.65152368D-15 -0.10427749D+01  0.41765524D-14  0.32754821D-14
 -0.14780795D+01  0.38803603D-14  0.14683714D-14 -0.14780795D+01  0.38960430D-14
  0.35927760D-14  0.18727988D-14  0.76358854D-01  0.14088828D+00  0.22865748D+00
  0.28297008D+01 -0.16981532D+01  0.28524758D+00 -0.13025210D+01 -0.47520223D-14
 -0.17546727D-14  0.31406079D+01  0.55299412D-14  0.25822908D-14 -0.41343452D-01
 -0.36716621D-15 -0.57816696D-16  0.89530275D+00  0.12402246D+00  0.12402246D+00
 -0.30226244D-15  0.24313664D-14 -0.87702286D-15  0.15926321D+01  0.79044171D+00
  0.79044171D+00  0.32871793D-16  0.64566184D-15  0.76045111D-15 -0.10427749D+01
 -0.60651229D-14 -0.17983165D-14 -0.14780795D+01 -0.62670798D-14  0.29780738D-15
 -0.14780795D+01 -0.55955270D-14 -0.15036187D-14  0.21650301D-14
MO   13     MO 0.0        OCC NO =    0.0000000  ORB. ENERGY =    1.701670
  0.78622815D-16  0.14506547D-15  0.23543693D-15 -0.59926134D-14 -0.59216797D-14
 -0.19619321D-15 -0.69209769D-14 -0.40026266D+01 -0.40106287D+01  0.13558774D-13
  0.42933489D+01  0.43019322D+01  0.30680273D-14 -0.20540627D+00 -0.20581693D+00
 -0.19597089D-14  0.22732752D-14  0.44001470D-15 -0.45172849D-01 -0.45263160D-01
 -0.81432574D-15 -0.28156804D-14 -0.78896160D-15 -0.39114811D-15  0.62174628D-02
  0.62298929D-02 -0.53599701D-15 -0.75733931D-14 -0.46568172D+01 -0.46661272D+01
 -0.88878190D-14 -0.46292462D+01 -0.46385011D+01 -0.83532881D-14 -0.46568172D+01
 -0.46661272D+01 -0.12042135D-15  0.82694752D-16  0.15257852D-15  0.24763039D-15
  0.46003461D-14  0.60984459D-14  0.15972794D-15 -0.42957771D-14 -0.40026266D+01
 -0.40106287D+01  0.94907797D-14  0.42933489D+01  0.43019322D+01  0.36092041D-14
 -0.20540627D+00 -0.20581693D+00  0.29890682D-14  0.15679824D-14  0.72598061D-15
  0.45172849D-01  0.45263160D-01  0.11599268D-14  0.40147099D-14 -0.97475917D-15
  0.14733762D-14 -0.62174628D-02 -0.62298929D-02 -0.59964792D-15 -0.31426344D-14
 -0.46568172D+01 -0.46661272D+01 -0.56566360D-14 -0.46292462D+01 -0.46385011D+01
 -0.50046629D-14 -0.46568172D+01 -0.46661272D+01 -0.39428135D-15
MO   14     MO 0.0        OCC NO =    0.0000000  ORB. ENERGY =    1.701670
  0.84671965D-16  0.15622664D-15  0.25355118D-15 -0.74175190D-14 -0.20016530D-14
  0.11003973D-16 -0.41080350D-14 -0.40106287D+01  0.40026266D+01  0.12351928D-13
  0.43019322D+01 -0.42933489D+01  0.94181780D-15 -0.20581693D+00  0.20540627D+00
 -0.29841281D-14 -0.10005881D-14 -0.38095928D-14 -0.45263160D-01  0.45172849D-01
  0.50272264D-14 -0.18486972D-14 -0.21268613D-14  0.60558345D-15  0.62298929D-02
 -0.62174628D-02 -0.37719006D-14 -0.81487688D-14 -0.46661272D+01  0.46568172D+01
 -0.83811501D-14 -0.46385011D+01  0.46292462D+01 -0.77432471D-14 -0.46661272D+01
  0.46568172D+01 -0.15535434D-14  0.80153543D-16  0.14788979D-15  0.24002072D-15
  0.37309537D-14  0.26647888D-14 -0.95741948D-16 -0.13484544D-13 -0.40106287D+01
  0.40026266D+01  0.17978233D-13  0.43019322D+01 -0.42933489D+01  0.17709842D-14
 -0.20581693D+00  0.20540627D+00  0.27114854D-14 -0.13737286D-14 -0.34888676D-14
  0.45263160D-01 -0.45172849D-01  0.67883775D-14  0.53775285D-14 -0.75819647D-15
  0.16642315D-14 -0.62298929D-02  0.62174628D-02 -0.69444246D-15 -0.10384286D-13
 -0.46661272D+01  0.46568172D+01 -0.16214003D-13 -0.46385011D+01  0.46292462D+01
 -0.12201237D-13 -0.46661272D+01  0.46568172D+01 -0.36109455D-14
MO   15     MO 0.0        OCC NO =    0.0000000  ORB. ENERGY =    1.943195
  0.14743248D-16  0.27202488D-16  0.44148827D-16 -0.11685257D-12 -0.23428330D-13
 -0.86484119D-15 -0.79994184D-13 -0.23074221D-14  0.44458283D-14  0.19873404D-12
  0.51229611D-14 -0.44451974D-14  0.27516814D-13  0.11280869D-14  0.50056112D-16
 -0.51090853D-13 -0.48648371D+00  0.48648371D+00 -0.36601418D-14 -0.16202174D-14
 -0.19068216D-03 -0.82259082D-13  0.43151553D+00 -0.43151553D+00 -0.49389989D-14
  0.91665404D-16  0.16913683D-03 -0.46396126D-13 -0.21137219D-14  0.48993704D-14
  0.13467535D+00  0.20061989D-14  0.44548971D-14 -0.13467535D+00 -0.24505292D-14
  0.63176026D-14  0.52787352D-04 -0.24416753D-15 -0.45050889D-15 -0.73116249D-15
  0.11700862D-12  0.35791631D-13 -0.65344388D-15 -0.24268712D-12 -0.32815696D-13
  0.14627814D-13  0.38812099D-12  0.31725673D-13 -0.14239207D-13  0.12165249D-13
 -0.30334471D-14  0.70038868D-15  0.49142729D-13 -0.48648371D+00  0.48648371D+00
 -0.51267370D-15  0.19371347D-14 -0.19068216D-03  0.58688606D-13  0.43151553D+00
 -0.43151553D+00 -0.53531198D-14  0.19424439D-15  0.16913683D-03 -0.26625488D-12
 -0.34764199D-13  0.16656990D-13 -0.13467535D+00 -0.41785601D-13  0.14614671D-13
  0.13467535D+00 -0.31434985D-13  0.19334511D-13 -0.52787352D-04
MO   16     MO 0.0        OCC NO =    0.0000000  ORB. ENERGY =    1.943195
 -0.43668776D-15 -0.80572433D-15 -0.13076666D-14 -0.49955701D-14 -0.20692434D-14
 -0.41926575D-15  0.19956277D-13  0.54517115D-14 -0.46277328D-14 -0.15628128D-13
 -0.39305116D-14  0.66037319D-16  0.43048897D-14 -0.59744548D-15 -0.22437660D-14
 -0.52564412D-14  0.95341081D-04 -0.95341081D-04 -0.50214722D-14 -0.26103800D-14
 -0.97296743D+00 -0.53436688D-14 -0.84568415D-04  0.84568415D-04  0.24707973D-14
  0.12503397D-13  0.86303106D+00  0.25498290D-13  0.75452063D-14 -0.21449477D-14
 -0.26393676D-04  0.37437937D-14 -0.19796541D-13  0.26393676D-04  0.93094036D-14
 -0.38599470D-14  0.26935070D+00 -0.37125302D-15 -0.68499192D-15 -0.11117215D-14
  0.49819842D-14  0.64368828D-14 -0.30171758D-15 -0.24071640D-13 -0.14114477D-13
 -0.70011198D-15  0.32835293D-13  0.15331715D-13  0.32190804D-14  0.30136081D-15
 -0.50986048D-15  0.20309051D-14 -0.13294553D-14  0.95341081D-04 -0.95341081D-04
  0.42510571D-14  0.40070030D-14 -0.97296743D+00  0.29005572D-15 -0.84568415D-04
  0.84568415D-04 -0.21903401D-15  0.88324511D-14  0.86303106D+00 -0.28126675D-13
 -0.10322796D-13  0.13360233D-14  0.26393676D-04 -0.12981997D-13  0.46280123D-14
 -0.26393676D-04 -0.16257881D-13 -0.81519740D-15 -0.26935070D+00
MO   17     MO 0.0        OCC NO =    0.0000000  ORB. ENERGY =    2.058628
  0.48296730D-02  0.89111384D-02  0.14462512D-01 -0.21297584D+00 -0.36632638D+00
  0.45293635D-01 -0.42395812D+01 -0.97393525D-15  0.34799419D-13  0.51811460D+01
  0.76468895D-15 -0.36246469D-13 -0.53033625D+00 -0.68356072D-16  0.30900300D-14
  0.98053886D-02  0.23280042D+00  0.23280042D+00 -0.42983574D-14 -0.30227090D-14
  0.22499447D-14  0.96710231D+00  0.96724467D-01  0.96724467D-01  0.25813303D-14
 -0.45268974D-14 -0.11748160D-14 -0.60800897D+01 -0.16041586D-14  0.37927104D-13
 -0.49646282D+01  0.46030614D-15  0.45576863D-13 -0.49646282D+01 -0.12795526D-14
  0.37269880D-13  0.44567182D-14  0.48296730D-02  0.89111384D-02  0.14462512D-01
 -0.21297584D+00 -0.36632638D+00  0.45293635D-01  0.42395812D+01  0.13822893D-14
 -0.29092226D-13 -0.51811460D+01 -0.16268848D-14  0.29732743D-13  0.53033625D+00
  0.13144735D-16 -0.27924388D-14  0.98053886D-02  0.23280042D+00  0.23280042D+00
 -0.45258059D-15 -0.37109357D-14 -0.15228113D-14  0.96710231D+00  0.96724467D-01
  0.96724467D-01 -0.11979021D-14 -0.44521874D-14  0.65190583D-14  0.60800897D+01
  0.34517049D-14 -0.31298718D-13  0.49646282D+01  0.35124584D-14 -0.35720819D-13
  0.49646282D+01  0.20498754D-14 -0.32067807D-13 -0.43074997D-16
MO   18     MO 0.0        OCC NO =    0.0000000  ORB. ENERGY =    2.195121
  0.80042895D-16  0.14768563D-15  0.23968938D-15  0.12081917D-13  0.88959064D-14
  0.79399592D-15 -0.36557274D-14  0.32367391D+01 -0.45426594D+01 -0.63270361D-14
 -0.31318180D+01  0.43954061D+01 -0.98357222D-14  0.39064181D+00 -0.54825325D+00
  0.55418328D-14  0.19526017D-14 -0.20077671D-15 -0.24400195D+00  0.34244891D+00
  0.57139573D-14  0.18575539D-13 -0.21225165D-15  0.41529694D-14 -0.87353174D+00
  0.12259738D+01 -0.71030513D-14 -0.18191480D-13  0.35726730D+01 -0.50141320D+01
 -0.30362776D-14  0.45252861D+01 -0.63510939D+01 -0.56213861D-14  0.35726730D+01
 -0.50141320D+01  0.50439575D-14  0.98096945D-16  0.18099682D-15  0.29375244D-15
 -0.18608731D-13 -0.12634376D-13 -0.38307947D-15  0.17172383D-13 -0.32367391D+01
  0.45426594D+01 -0.38818068D-13  0.31318180D+01 -0.43954061D+01 -0.45012428D-14
 -0.39064181D+00  0.54825325D+00 -0.65069756D-14 -0.37365794D-15  0.60037192D-15
 -0.24400195D+00  0.34244891D+00 -0.58452358D-15 -0.28827928D-14 -0.44339126D-15
 -0.16542368D-14 -0.87353174D+00  0.12259738D+01  0.14352770D-14  0.26853725D-13
 -0.35726730D+01  0.50141320D+01  0.21886861D-13 -0.45252861D+01  0.63510939D+01
  0.20292523D-13 -0.35726730D+01  0.50141320D+01  0.99719210D-14
MO   19     MO 0.0        OCC NO =    0.0000000  ORB. ENERGY =    2.195121
  0.14873281D-16  0.27442409D-16  0.44538211D-16  0.16165398D-13  0.15049864D-13
  0.55636629D-15  0.54250075D-15 -0.45426594D+01 -0.32367391D+01 -0.17193262D-13
  0.43954061D+01  0.31318180D+01 -0.10656489D-13 -0.54825325D+00 -0.39064181D+00
  0.45818080D-14 -0.24651458D-15  0.14592567D-14  0.34244891D+00  0.24400195D+00
 -0.19815709D-14  0.16989270D-13 -0.10516195D-14  0.70033192D-15  0.12259738D+01
  0.87353174D+00 -0.44704816D-15 -0.78916602D-14 -0.50141320D+01 -0.35726730D+01
  0.29719665D-14 -0.63510939D+01 -0.45252861D+01  0.12693749D-15 -0.50141320D+01
 -0.35726730D+01  0.46830716D-15  0.15772753D-15  0.29102008D-15  0.47231691D-15
 -0.19311426D-13 -0.16592653D-13 -0.27641774D-15  0.10626368D-13  0.45426594D+01
  0.32367391D+01 -0.33586019D-13 -0.43954061D+01 -0.31318180D+01 -0.78294237D-14
  0.54825325D+00  0.39064181D+00 -0.81994108D-14 -0.29142413D-14  0.40999622D-14
  0.34244891D+00  0.24400195D+00 -0.26464450D-14 -0.78755877D-14  0.20109868D-14
 -0.43593407D-14  0.12259738D+01  0.87353174D+00 -0.15373219D-14  0.12215511D-13
  0.50141320D+01  0.35726730D+01  0.13719570D-13  0.63510939D+01  0.45252861D+01
  0.17164347D-13  0.50141320D+01  0.35726730D+01  0.55453086D-14
MO   20     MO 0.0        OCC NO =    0.0000000  ORB. ENERGY =    2.529778
 -0.31760048D-15 -0.58599865D-15 -0.95105833D-15 -0.56894910D-14 -0.27479809D-14
 -0.25178423D-15  0.10619142D-13 -0.92514065D+00  0.87217517D+00 -0.54703282D-14
  0.11529722D+01 -0.10869630D+01  0.30842521D-14 -0.49316853D-01  0.46493400D-01
 -0.50563776D-14 -0.23561519D-13  0.17542343D-13 -0.89497307D+00  0.84373472D+00
  0.61053171D-13 -0.51982552D-14  0.27391717D-13 -0.30729862D-13  0.85188345D+00
 -0.80311204D+00 -0.80580001D-13  0.15475029D-13 -0.99384021D+00  0.93694159D+00
 -0.55710095D-14 -0.10818560D+01  0.10199183D+01  0.29297194D-13 -0.99384021D+00
  0.93694159D+00  0.45406324D-13 -0.27608685D-15 -0.50940263D-15 -0.82674528D-15
  0.54414711D-14  0.71073075D-14 -0.10663053D-15 -0.71772994D-14 -0.92514065D+00
  0.87217517D+00  0.14882214D-13  0.11529722D+01 -0.10869630D+01  0.22437792D-14
 -0.49316853D-01  0.46493400D-01 -0.16527365D-14  0.17768510D-13 -0.25510128D-13
  0.89497307D+00 -0.84373472D+00 -0.61233937D-13  0.10016643D-14 -0.32605688D-13
  0.26139996D-13 -0.85188345D+00  0.80311204D+00  0.81557813D-13 -0.79159664D-14
 -0.99384021D+00  0.93694159D+00 -0.29391879D-13 -0.10818560D+01  0.10199183D+01
  0.78207019D-14 -0.99384021D+00  0.93694159D+00  0.46854925D-13
MO   21     MO 0.0        OCC NO =    0.0000000  ORB. ENERGY =    2.529778
 -0.16475811D-15 -0.30399208D-15 -0.49337008D-15  0.51459815D-14  0.36476780D-15
 -0.13150006D-15  0.75835753D-14 -0.87217517D+00 -0.92514065D+00 -0.11533901D-13
  0.10869630D+01  0.11529722D+01  0.54614165D-15 -0.46493400D-01 -0.49316853D-01
  0.10565837D-14  0.14110408D-13 -0.14598701D-13 -0.84373472D+00 -0.89497307D+00
  0.39563604D-13 -0.22346902D-16 -0.20638279D-13  0.22631388D-13  0.80311204D+00
  0.85188345D+00 -0.53097138D-13  0.12143048D-13 -0.93694159D+00 -0.99384021D+00
  0.21816396D-13 -0.10199183D+01 -0.10818560D+01 -0.37681899D-14 -0.93694159D+00
 -0.99384021D+00  0.27305260D-13 -0.88209952D-16 -0.16275452D-15 -0.26414573D-15
 -0.10110092D-14 -0.63950684D-16  0.32258275D-16 -0.55864202D-14 -0.87217517D+00
 -0.92514065D+00  0.45471142D-14  0.10869630D+01  0.11529722D+01 -0.18394551D-14
 -0.46493400D-01 -0.49316853D-01 -0.62995477D-15 -0.17080627D-13  0.12826369D-13
  0.84373472D+00  0.89497307D+00 -0.36876948D-13 -0.51790650D-14  0.21473971D-13
 -0.22190378D-13 -0.80311204D+00 -0.85188345D+00  0.49890135D-13 -0.10168537D-13
 -0.93694159D+00 -0.99384021D+00  0.55751337D-14 -0.10199183D+01 -0.10818560D+01
 -0.19945191D-13 -0.93694159D+00 -0.99384021D+00  0.30878089D-13
MO   22     MO 0.0        OCC NO =    0.0000000  ORB. ENERGY =    2.556695
  0.24478595D-14  0.45164992D-14  0.73301435D-14 -0.14539377D-12 -0.94034533D-13
 -0.16576590D-14  0.77213061D-13  0.30319052D-13 -0.65313147D-13  0.69765546D-13
 -0.42220622D-13  0.79762057D-13  0.52996386D-13 -0.75923204D-15 -0.50882682D-14
 -0.32801376D-13 -0.56792991D+00  0.56792991D+00  0.13771302D-13 -0.52530844D-13
  0.42945127D-03 -0.58596320D-13  0.80535624D+00 -0.80535624D+00  0.66775937D-14
  0.57153024D-13 -0.60898581D-03  0.98980317D-13  0.34084177D-13 -0.70601836D-13
 -0.46698277D+00  0.18773127D-13 -0.80566200D-13  0.46698277D+00  0.34522877D-13
 -0.65755916D-13  0.35311811D-03 -0.25398572D-15 -0.46862425D-15 -0.76056318D-15
  0.10268463D-12  0.93910043D-13  0.18658155D-14 -0.81630450D-13 -0.11726417D-13
 -0.13266176D-13  0.21132663D-12  0.18441222D-13  0.29071453D-13  0.60387633D-13
  0.18960681D-14  0.23465411D-15  0.40051634D-13  0.56792991D+00 -0.56792991D+00
 -0.72946162D-14  0.55063719D-13 -0.42945127D-03  0.10592194D-12 -0.80535624D+00
  0.80535624D+00  0.25158837D-13 -0.47766587D-13  0.60898581D-03 -0.47826368D-13