H2O Optimization                                                        
FOpt      RHF                                                         STO-3G              
Number of atoms                            I                3
Info1-9                                    I   N=           9
          21          10           0           0           0         110
           2           1           2
Charge                                     I                0
Multiplicity                               I                1
Number of electrons                        I               10
Number of alpha electrons                  I                5
Number of beta electrons                   I                5
Number of basis functions                  I                7
Number of independent functions            I                7
Number of point charges in /Mol/           I                0
Number of translation vectors              I                0
Atomic numbers                             I   N=           3
           8           1           1
Nuclear charges                            R   N=           3
  8.00000000E+00  1.00000000E+00  1.00000000E+00
Current cartesian coordinates              R   N=           9
 -4.44734101E+00  3.39697999E+00  0.00000000E+00 -2.58401495E+00  3.55136194E+00
  0.00000000E+00 -4.92380519E+00  5.20496220E+00  0.00000000E+00
Force Field                                I                0
Int Atom Types                             I   N=           3
           0           0           0
MM charges                                 R   N=           3
  0.00000000E+00  0.00000000E+00  0.00000000E+00
Integer atomic weights                     I   N=           3
          16           1           1
Real atomic weights                        R   N=           3
  1.59949146E+01  1.00782504E+00  1.00782504E+00
Atom fragment info                         I   N=           3
           0           0           0
Atom residue num                           I   N=           3
           0           0           0
Nuclear spins                              I   N=           3
           0           1           1
Nuclear ZEff                               R   N=           3
 -5.60000000E+00 -1.00000000E+00 -1.00000000E+00
Nuclear QMom                               R   N=           3
  0.00000000E+00  0.00000000E+00  0.00000000E+00
Nuclear GFac                               R   N=           3
  0.00000000E+00  2.79284600E+00  2.79284600E+00
MicOpt                                     I   N=           3
          -1          -1          -1
Number of contracted shells                I                4
Number of primitive shells                 I               12
Pure/Cartesian d shells                    I                0
Pure/Cartesian f shells                    I                0
Highest angular momentum                   I                1
Largest degree of contraction              I                3
Shell types                                I   N=           4
           0          -1           0           0
Number of primitives per shell             I   N=           4
           3           3           3           3
Shell to atom map                          I   N=           4
           1           1           2           3
Primitive exponents                        R   N=          12
  1.30709321E+02  2.38088661E+01  6.44360831E+00  5.03315132E+00  1.16959612E+00
  3.80388960E-01  3.42525091E+00  6.23913730E-01  1.68855404E-01  3.42525091E+00
  6.23913730E-01  1.68855404E-01
Contraction coefficients                   R   N=          12
  1.54328967E-01  5.35328142E-01  4.44634542E-01 -9.99672292E-02  3.99512826E-01
  7.00115469E-01  1.54328967E-01  5.35328142E-01  4.44634542E-01  1.54328967E-01
  5.35328142E-01  4.44634542E-01
P(S=P) Contraction coefficients            R   N=          12
  0.00000000E+00  0.00000000E+00  0.00000000E+00  1.55916275E-01  6.07683719E-01
  3.91957393E-01  0.00000000E+00  0.00000000E+00  0.00000000E+00  0.00000000E+00
  0.00000000E+00  0.00000000E+00
Coordinates of each shell                  R   N=          12
 -4.44734101E+00  3.39697999E+00  0.00000000E+00 -4.44734101E+00  3.39697999E+00
  0.00000000E+00 -2.58401495E+00  3.55136194E+00  0.00000000E+00 -4.92380519E+00
  5.20496220E+00  0.00000000E+00
Constraint Structure                       R   N=           9
 -4.38790895E+00  3.48107441E+00  0.00000000E+00 -2.57377186E+00  3.48107441E+00
  0.00000000E+00 -4.99348034E+00  5.19115530E+00  0.00000000E+00
Num ILSW                                   I              100
ILSW                                       I   N=         100
           0           0           0           0           2           0
           0           0           0           0           0          -1
           5           0           0           0           2           0
           0           0           1           0           1           0
           1           1           0           0           0           0
           0           0      100000           0          -1           0
           0           0           0           0           0           0
           0           0           0           1           0           0
           0           0           1           0           0           0
           0           0           4          40           0           0
           0           0           0           0           0           0
           0           0           0           0           0           0
           0           0           0           0           0           0
           0           0           0           0           0           0
           0           0           0           0           0           0
           0           0           0           0           0           0
           0           0           0           0
Num RLSW                                   I               40
RLSW                                       R   N=          40
  1.00000000E+00  1.00000000E+00  1.00000000E+00  1.00000000E+00  1.00000000E+00
  0.00000000E+00  0.00000000E+00  1.00000000E+00  0.00000000E+00  0.00000000E+00
  0.00000000E+00  0.00000000E+00  1.00000000E+00  0.00000000E+00  0.00000000E+00
  0.00000000E+00  0.00000000E+00  1.00000000E+00  0.00000000E+00  0.00000000E+00
  0.00000000E+00  0.00000000E+00  1.00000000E+00  0.00000000E+00  0.00000000E+00
  0.00000000E+00  0.00000000E+00  1.00000000E+00  0.00000000E+00  0.00000000E+00
  0.00000000E+00  0.00000000E+00  1.00000000E+00  0.00000000E+00  0.00000000E+00
  0.00000000E+00  0.00000000E+00  0.00000000E+00  1.00000000E+00  1.00000000E+00
MxBond                                     I                2
NBond                                      I   N=           3
           2           1           1
IBond                                      I   N=           6
           2           3           1           0           1           0
RBond                                      R   N=           6
  1.00000000E+00  1.00000000E+00  1.00000000E+00  0.00000000E+00  1.00000000E+00
  0.00000000E+00
Virial Ratio                               R      2.006002390182135E+00
SCF Energy                                 R     -7.496590121707993E+01
Total Energy                               R     -7.496590121707993E+01
RMS Force                                  R      1.327590080912439E-06
RMS Density                                R      1.292019179227676E-13
External E-field                           R   N=          35
  0.00000000E+00  0.00000000E+00  0.00000000E+00  0.00000000E+00  0.00000000E+00
  0.00000000E+00  0.00000000E+00  0.00000000E+00  0.00000000E+00  0.00000000E+00
  0.00000000E+00  0.00000000E+00  0.00000000E+00  0.00000000E+00  0.00000000E+00
  0.00000000E+00  0.00000000E+00  0.00000000E+00  0.00000000E+00  0.00000000E+00
  0.00000000E+00  0.00000000E+00  0.00000000E+00  0.00000000E+00  0.00000000E+00
  0.00000000E+00  0.00000000E+00  0.00000000E+00  0.00000000E+00  0.00000000E+00
  0.00000000E+00  0.00000000E+00  0.00000000E+00  0.00000000E+00  0.00000000E+00
IOpCl                                      I                0
IROHF                                      I                0
Alpha Orbital Energies                     R   N=           7
 -2.02515759E+01 -1.25754909E+00 -5.93856648E-01 -4.59728939E-01 -3.92616748E-01
  5.81794346E-01  6.92676994E-01
Alpha MO coefficients                      R   N=          49
  9.94216400E-01  2.58471732E-02  2.40341138E-03  3.40074843E-03  1.40563196E-15
 -5.58389935E-03 -5.58389935E-03 -2.33765658E-01  8.44448844E-01  7.08954375E-02
  1.00314723E-01 -3.37896997E-16  1.55594636E-01  1.55594636E-01  4.51169863E-13
 -2.44399152E-12  5.00352679E-01 -3.53614314E-01  8.41757304E-18  4.49221618E-01
 -4.49221618E-01  1.04035680E-01 -5.38166297E-01  4.36251698E-01  6.17281873E-01
  1.03938861E-14  2.95101687E-01  2.95101687E-01 -1.36271027E-15  6.80657021E-15
 -3.77872169E-15 -5.33789249E-15  1.00000000E+00 -3.99442104E-15 -3.98656900E-15
 -1.25820500E-01  8.20148027E-01  4.40678909E-01  6.23546232E-01 -1.16667857E-15
 -7.69165714E-01 -7.69165714E-01  1.67024527E-12 -1.18353403E-11 -7.83816582E-01
  5.53946795E-01  1.12304331E-19  8.14647766E-01 -8.14647766E-01
Total SCF Density                          R   N=          28
  2.10787211E+00 -4.55387906E-01  2.00676978E+00  6.24046686E-02 -3.49692539E-01
  8.91400574E-01  8.83005634E-02 -4.94803496E-01  1.98956851E-01  1.03230920E+00
  2.39023159E-15  1.92785184E-15  1.47852694E-15  2.09194510E-15  2.00000000E+00
 -2.24463642E-02 -5.51328003E-02  7.29050763E-01  7.77983428E-02 -1.96762047E-15
  6.26251877E-01 -2.24463642E-02 -5.51328003E-02 -1.70026197E-01  7.13203119E-01
 -1.96704181E-15 -1.80948371E-01  6.26251877E-01
QEq coupling tensors                       R   N=          18
 -1.64401713E+00  7.95034259E-01 -1.08094435E+00  5.77895049E-15  8.17676971E-15
  2.72496148E+00 -4.05203204E-01 -1.27014306E-02  1.73023152E-01 -3.33832211E-16
  6.63575340E-17  2.32180052E-01  1.16586383E-01  1.72073952E-01 -3.48766435E-01
  1.73999964E-16 -2.92601851E-16  2.32180052E-01
Mulliken Charges                           R   N=           3
 -3.30531528E-01  1.65265764E-01  1.65265764E-01
Optimization MaxStp                        I              100
Optimization Job offset                    I                0
Optimization Num results per geometry      I                2
Optimization Num geometry variables        I                9
Opt point       1 Results for each geome   R   N=          10
 -7.49607025E+01  0.00000000E+00 -7.49650717E+01  0.00000000E+00 -7.49658570E+01
  0.00000000E+00 -7.49659012E+01  0.00000000E+00 -7.49659012E+01  0.00000000E+00
Opt point       1 Geometries               R   N=          45
 -4.38790895E+00  3.48107441E+00  0.00000000E+00 -2.57377186E+00  3.48107441E+00
  0.00000000E+00 -4.99348034E+00  5.19115530E+00  0.00000000E+00 -4.46703119E+00
  3.36911903E+00  0.00000000E+00 -2.61175366E+00  3.59185402E+00  0.00000000E+00
 -4.87637631E+00  5.19233108E+00  0.00000000E+00 -4.44709259E+00  3.39733149E+00
  0.00000000E+00 -2.57601465E+00  3.54544435E+00  0.00000000E+00 -4.93205392E+00
  5.21052828E+00  0.00000000E+00 -4.44723718E+00  3.39712690E+00  0.00000000E+00
 -2.58416998E+00  3.55136135E+00  0.00000000E+00 -4.92375400E+00  5.20481586E+00
  0.00000000E+00 -4.44734101E+00  3.39697999E+00  0.00000000E+00 -2.58401495E+00
  3.55136194E+00  0.00000000E+00 -4.92380519E+00  5.20496220E+00  0.00000000E+00
Opt point       1 Gradient at each geome   R   N=          45
  4.21224735E-02  5.96019274E-02  6.45673987E-16 -3.09347600E-02 -2.28230457E-02
 -1.36624906E-16 -1.11877134E-02 -3.67788818E-02 -5.09049081E-16 -7.58853189E-03
 -1.07375258E-02 -1.52820812E-16 -5.03888961E-03  1.16114196E-02  9.61802420E-17
  1.26274215E-02 -8.73893816E-04  5.66405698E-17 -2.20774617E-03 -3.12388906E-03
  1.44243659E-16  4.82255825E-03 -1.06616246E-03 -7.19638862E-17 -2.61481208E-03
  4.19005152E-03 -7.22797729E-17  1.32322102E-04  1.87231490E-04 -1.20349924E-16
 -1.62815157E-04 -2.53073621E-05  6.05676390E-17  3.04930551E-05 -1.61924128E-04
  5.97822852E-17  1.87401448E-06  2.65166479E-06 -6.32389875E-16 -8.11056711E-07
 -1.41484672E-06  3.16277097E-16 -1.06295776E-06 -1.23681808E-06  3.16112778E-16
Optimization Number of geometries          I   N=           1
           5
ONIOM Charges                              I   N=          16
           0           0           0           0           0           0
           0           0           0           0           0           0
           0           0           0           0
ONIOM Multiplicities                       I   N=          16
           1           0           0           0           0           0
           0           0           0           0           0           0
           0           0           0           0
Atom Layers                                I   N=           3
           1           1           1
Atom Modifiers                             I   N=           3
           0           0           0
Force Field                                I                0
Int Atom Modified Types                    I   N=           3
           0           0           0
Link Atoms                                 I   N=           3
           0           0           0
Atom Modified MM Charges                   R   N=           3
  0.00000000E+00  0.00000000E+00  0.00000000E+00
Link Distances                             R   N=          12
  0.00000000E+00  0.00000000E+00  0.00000000E+00  0.00000000E+00  0.00000000E+00
  0.00000000E+00  0.00000000E+00  0.00000000E+00  0.00000000E+00  0.00000000E+00
  0.00000000E+00  0.00000000E+00
Cartesian Gradient                         R   N=           9
  1.87401448E-06  2.65166479E-06 -6.32389875E-16 -8.11056711E-07 -1.41484672E-06
  3.16277097E-16 -1.06295776E-06 -1.23681808E-06  3.16112778E-16
Dipole Moment                              R   N=           3
  3.88103311E-01  5.49153482E-01 -4.18356732E-16
Quadrupole Moment                          R   N=           6
 -3.13848330E+00  3.94200417E+00 -8.03520866E-01 -1.26861188E+00  1.50263457E-15
 -1.92782492E-15
