[Molden Format]
[Atoms] (AU)
O    1    8         2.894587992670       0.011190958115      -0.228430094045
H    2    1         1.088421777028      -0.009919172433       0.047178902448
H    3    1         3.602288536928      -0.070980002998       1.442272994020
[GTO]
  1 0
 s    6  1.00
     5484.6717000000         0.0018311000
      825.2349500000         0.0139501000
      188.0469600000         0.0684451000
       52.9645000000         0.2327143000
       16.8975700000         0.4701930000
        5.7996353000         0.3585209000
 s    3  1.00
       15.5396160000        -0.1107775000
        3.5999336000        -0.1480263000
        1.0137618000         1.1307670000
 p    3  1.00
       15.5396160000         0.0708743000
        3.5999336000         0.3397528000
        1.0137618000         0.7271586000
 s    1  1.00
        0.2700058000         1.0000000000
 p    1  1.00
        0.2700058000         1.0000000000
 d    1  1.00
        0.8000000000         1.0000000000

  2 0
 s    3  1.00
       18.7311370000         0.0334946000
        2.8253937000         0.2347269500
        0.6401217000         0.8137573300
 s    1  1.00
        0.1612778000         1.0000000000

  3 0
 s    3  1.00
       18.7311370000         0.0334946000
        2.8253937000         0.2347269500
        0.6401217000         0.8137573300
 s    1  1.00
        0.1612778000         1.0000000000

[MO]
 Sym= A
 Ene= -2.05618653116483614e+01
 Spin= Alpha
 Occup=  2.00000000000000000e+00
  1  9.94646686745445985e-01
  2  2.11195488544570105e-02
  3 -6.46384229138492208e-04
  4 -6.17666696003392376e-05
  5  1.16479579282288779e-03
  6  4.05428432608594819e-03
  7  2.33572856239803919e-04
  8  2.20731740822666549e-05
  9 -4.16056663718876181e-04
 10 -4.16029627704922293e-03
 11 -3.89673285482141198e-03
 12 -4.08784639517788002e-03
 13  3.18536072822907485e-06
 14 -1.03448090305459104e-04
 15  1.90776213901066270e-05
 16  3.38676207912331064e-04
 17 -1.91876980556270407e-04
 18  3.32921656951505531e-04
 19 -1.89922642302470246e-04
 Sym= A
 Ene= -1.33855451810605519e+00
 Spin= Alpha
 Occup=  2.00000000000000000e+00
  1  2.09843104802862696e-01
  2 -4.76036407117147342e-01
  3  4.35222130266461477e-02
  4  4.27021182425980743e-03
  5 -8.06176866583639684e-02
  6 -4.42180257461595672e-01
  7  2.47735339639520782e-02
  8  2.37067401922687890e-03
  9 -4.47089048093632507e-02
 10 -2.48456578426345595e-02
 11  1.28660389334562088e-03
 12 -2.24876388038205907e-02
 13  1.04978204928906449e-05
 14 -4.25417775054159116e-03
 15  2.40723800284164220e-03
 16 -1.28571787724000963e-01
 17 -2.31116922353650188e-03
 18 -1.30546237003621363e-01
 19 -2.07402950518387197e-03
 Sym= A
 Ene= -7.02693143168579226e-01
 Spin= Alpha
 Occup=  2.00000000000000000e+00
  1 -8.06738896771499385e-04
  2  1.57073759099426850e-03
  3 -4.40661700828082259e-01
  4  1.09601869122413469e-02
  5 -2.49597552033432202e-01
  6  4.00044032463485293e-03
  7 -2.68177993548897264e-01
  8  6.64074998435341610e-03
  9 -1.51321876951412693e-01
 10  3.76340936441439261e-02
 11 -6.52007049431530314e-05
 12 -3.77777158167000929e-02
 13  2.65333236253247930e-03
 14 -4.63698178157273891e-02
 15  3.66194797446891662e-03
 16  2.29344015295529891e-01
 17  1.13098391917613575e-01
 18 -2.30848082816284272e-01
 19 -1.12732945562242726e-01
 Sym= A
 Ene= -5.70329148692033772e-01
 Spin= Alpha
 Occup=  2.00000000000000000e+00
  1  7.32585085222536014e-02
  2 -1.64588072607735558e-01
  3 -2.72201509346363835e-01
  4 -2.55851703067194285e-02
  5  4.82140946570049911e-01
  6 -3.24621229617473139e-01
  7 -1.98021138603360070e-01
  8 -1.85867983580218013e-02
  9  3.50238506239037239e-01
 10  1.12625891664070096e-02
 11 -1.16570028503031314e-02
 12  3.49941003832768271e-02
 13  2.17835066275045858e-03
 14 -3.92789465144296815e-02
 15 -4.91165344866067565e-03
 16  1.43087137663664654e-01
 17  8.85669806172684204e-02
 18  1.40827978376448448e-01
 19  8.62708776747468375e-02
 Sym= A
 Ene= -4.97552010876258388e-01
 Spin= Alpha
 Occup=  2.00000000000000000e+00
  1  4.86293192125969036e-18
  2 -5.19774587275378686e-14
  3  2.51048072375279797e-03
  4 -6.38995393632661113e-01
  5 -3.24914310650951596e-02
  6  9.03545193349509479e-14
  7  2.00601269331545252e-03
  8 -5.10592596264300647e-01
  9 -2.59624471618483052e-02
 10 -1.10150474885550975e-04
 11  2.69721907955412657e-03
 12 -2.58706860476591582e-03
 13  2.80261235485644543e-02
 14  1.62549435594311993e-03
 15 -5.07416495490752850e-02
 16  2.11764509058790926e-14
 17 -1.66711726387323670e-14
 18  9.90076011093819468e-14
 19 -3.37169044540660992e-14
 Sym= A
 Ene=  2.09227895431011390e-01
 Spin= Alpha
 Occup=  0.00000000000000000e+00
  1  1.00294828004317660e-01
  2 -5.79506040894229787e-02
  3  1.10723887316297523e-01
  4  1.01061764487582958e-02
  5 -1.90198763509878244e-01
  6 -1.39886488420980415e+00
  7  2.54405863360132933e-01
  8  2.34701231578583504e-02
  9 -4.41920195544119043e-01
 10  5.24740632216428443e-02
 11  7.07288040340567775e-02
 12  4.56942328773942558e-02
 13 -7.12879758721917571e-04
 14  1.11885507378337648e-02
 15  2.59671323095335329e-03
 16  5.76314780022260595e-02
 17  1.04136362769592417e+00
 18  5.55462786826555061e-02
 19  1.02768316018267614e+00
 Sym= A
 Ene=  3.02301970427443667e-01
 Spin= Alpha
 Occup=  0.00000000000000000e+00
  1 -9.90168750113156956e-04
  2 -1.13425665861939539e-04
  3  2.89153822822132145e-01
  4 -7.11617044701937269e-03
  5  1.62292489481690783e-01
  6  1.98712816688687045e-02
  7  7.22351799859104360e-01
  8 -1.79006006274578210e-02
  9  4.07856815752517199e-01
 10 -1.68685248303383772e-02
 11 -1.01334131266337291e-03
 12  1.54890300248859778e-02
 13 -1.15705006166964483e-03
 14  2.03110328238212436e-02
 15 -1.60232828586612600e-03
 16  5.23507433131858435e-02
 17  1.36869284940421743e+00
 18 -5.15869217909302805e-02
 19 -1.39274837708850652e+00
 Sym= A
 Ene=  1.01840220106708346e+00
 Spin= Alpha
 Occup=  0.00000000000000000e+00
  1 -5.81465665101498701e-04
  2  8.19375401079228995e-03
  3 -9.32724199847509844e-02
  4  1.82193325988270604e-03
  5 -4.30379803820270801e-02
  6 -1.83442618004050692e-02
  7 -5.49613984455072591e-01
  8  1.36661968977842829e-02
  9 -3.11233819146335133e-01
 10 -1.47252058114569012e-01
 11  4.73931467501007096e-03
 12  1.46725130132535408e-01
 13 -1.01845814563410481e-02
 14  1.76859435522296382e-01
 15 -1.37780418511185849e-02
 16 -8.54173897878500399e-01
 17  4.98645616914191625e-01
 18  8.23504531397351691e-01
 19 -4.68055348572901875e-01
 Sym= A
 Ene=  1.12983842907588450e+00
 Spin= Alpha
 Occup=  0.00000000000000000e+00
  1  6.73905238006089046e-03
  2 -9.22030028644730604e-01
  3 -1.65783494387420099e-01
  4 -1.62098762953764020e-02
  5  3.05983445233414197e-01
  6  1.62993791875643401e+00
  7  3.03993805780720716e-01
  8  3.08805882096850025e-02
  9 -5.83827255620090191e-01
 10 -2.04093694259422226e-01
 11 -3.92955719957971128e-01
 12 -2.76419808121044996e-01
 13 -4.79437614021430494e-03
 14  1.23517503457773944e-01
 15 -1.13943882330543103e-02
 16  5.89276366552633046e-01
 17 -5.14940939539460074e-01
 18  6.07964177405591166e-01
 19 -5.11012472088095082e-01
 Sym= A
 Ene=  1.16622541706668703e+00
 Spin= Alpha
 Occup=  0.00000000000000000e+00
  1  4.89911665984096509e-02
  2  1.79936210626448878e-01
  3  3.88960222390787091e-01
  4  3.65802400626569144e-02
  5 -6.89354915734454177e-01
  6 -5.96084290451265653e-01
  7 -2.29611033011520416e-01
  8 -1.95286314131033582e-02
  9  3.66320319494990110e-01
 10  2.23220821986743534e-01
 11 -2.09870368703064143e-02
 12  1.52036888866894482e-01
 13 -4.60588313583720679e-03
 14  1.28385794926687696e-01
 15 -1.71347094158540922e-02
 16  5.99074443486336206e-01
 17 -3.22208402760526424e-01
 18  6.24481814747057218e-01
 19 -3.19749740602172983e-01
 Sym= A
 Ene=  1.16776074139350428e+00
 Spin= Alpha
 Occup=  0.00000000000000000e+00
  1  2.70446992599474976e-12
  2  9.04345406217172898e-12
  3  3.77697977832945793e-03
  4 -9.61358772390783933e-01
  5 -4.88828599028788210e-02
  6 -3.15157569117290281e-11
  7 -4.06554717796156050e-03
  8  1.03480814915311514e+00
  9  5.26175900337570654e-02
 10  4.91682142357644444e-05
 11 -1.17010307153992592e-03
 12  1.12093487591931286e-03
 13 -1.25102389898495130e-02
 14 -7.22960407427703259e-04
 15  2.19854604875634463e-02
 16  3.30341441080980715e-11
 17 -1.79626087207977525e-11
 18  3.53309277745658650e-11
 19 -1.77246101506000986e-11
 Sym= A
 Ene=  1.37851754285487171e+00
 Spin= Alpha
 Occup=  0.00000000000000000e+00
  1 -4.08398490341645084e-04
  2  4.55715451197839794e-03
  3  9.03440285209728633e-01
  4 -2.21459666937556567e-02
  5  5.05340626370655244e-01
  6 -8.09143985538211472e-03
  7 -1.34260207715401880e+00
  8  3.26361968542884240e-02
  9 -7.45579843547143239e-01
 10  7.30517906911022294e-03
 11  3.64726002560710394e-03
 12 -9.51365378103802284e-03
 13  7.67489412677113182e-04
 14 -1.45334418670989805e-02
 15  1.28447255410787356e-03
 16  8.28126302319889679e-02
 17 -8.94083814662418597e-01
 18 -9.83976334302859162e-02
 19  9.06200488955430927e-01
 Sym= A
 Ene=  1.43478499426167327e+00
 Spin= Alpha
 Occup=  0.00000000000000000e+00
  1  8.56426533255115197e-02
  2  1.40496409761585617e+00
  3 -2.48135848959959049e-01
  4 -2.37047109669154855e-02
  5  4.47018194444346928e-01
  6 -3.53355542240545040e+00
  7  5.68875531503197029e-01
  8  5.47074646876538340e-02
  9 -1.03195414229631144e+00
 10  5.87017637589091978e-01
 11  2.70783687867267531e-01
 12  4.57477009183082262e-01
 13 -7.94013810942892882e-03
 14  2.05092793738424456e-01
 15 -1.82256119200609641e-02
 16  3.31967088084020756e-01
 17  7.59796262286085988e-01
 18  3.29211146807594002e-01
 19  7.78841763934298603e-01
 Sym= A
 Ene=  2.02168297609224679e+00
 Spin= Alpha
 Occup=  0.00000000000000000e+00
  1  7.08579221054513129e-03
  2  7.68975024493909615e-02
  3 -3.09841710909658638e-03
  4 -2.69156947939112889e-04
  5  5.05399509529864260e-03
  6 -2.22847371952036549e-01
  7  6.26848835141916860e-02
  8  5.93626610594974544e-03
  9 -1.11902658210774567e-01
 10 -2.07091652280465610e-01
 11 -3.58301300504817732e-01
 12  6.26386547755688916e-01
 13  7.01044872518546691e-02
 14 -1.35491219251283468e+00
 15 -1.05748764816871607e-01
 16  7.57313074869282871e-02
 17  3.51670867711217847e-02
 18  7.54151187029996339e-02
 19  3.59401781607349979e-02
 Sym= A
 Ene=  2.03618065989291486e+00
 Spin= Alpha
 Occup=  0.00000000000000000e+00
  1  6.43123204027287311e-14
  2  7.35443760130947350e-13
  3 -1.15499024048769226e-06
  4  2.93980939734581005e-04
  5  1.49482482073448969e-05
  6 -2.10029520492410067e-12
  7 -1.23039323543106081e-06
  8  3.13173416438450054e-04
  9  1.59241394927748973e-05
 10  5.90217357838977632e-03
 11  3.76589808749600297e-02
 12 -4.35611544526982933e-02
 13 -1.50243462557982421e+00
 14 -7.30219934625454675e-02
 15 -8.54784144845756821e-01
 16  5.58827093575182760e-13
 17  2.46725737146095958e-13
 18  3.42400991398014572e-13
 19  6.31292291865584963e-13
 Sym= A
 Ene=  2.06937320234915489e+00
 Spin= Alpha
 Occup=  0.00000000000000000e+00
  1  4.93680916552644128e-14
  2  5.79666040999113565e-13
  3 -2.90010932136351365e-05
  4  7.38167985970856078e-03
  5  3.75341270289954437e-04
  6 -1.62693432334857014e-12
  7 -1.27160351644090388e-04
  8  3.23662628262184060e-02
  9  1.64574926121556432e-03
 10 -3.36677971555987858e-03
 11  7.95957972383655732e-02
 12 -7.62290175222152255e-02
 13  8.56637393500105149e-01
 14  4.94638280535814601e-02
 15 -1.49511696322011822e+00
 16  1.53989600728999746e-13
 17  1.66901743917087705e-13
 18  1.03310990818781392e-13
 19  6.46777495791469800e-13
 Sym= A
 Ene=  2.61408555968315381e+00
 Spin= Alpha
 Occup=  0.00000000000000000e+00
  1  5.65343513316207830e-02
  2  4.90269743182942197e-01
  3 -2.95253001793202574e-02
  4 -2.42724762655677304e-03
  5  4.54543646560847461e-02
  6 -1.54615603661243139e+00
  7  3.63916642996835293e-01
  8  3.37633163269597386e-02
  9 -6.35890670620819387e-01
 10 -5.89456222282324305e-01
 11  1.13001681083105510e+00
 12 -1.96859624739745886e-01
 13  1.60171991987800577e-02
 14 -5.81234581448148657e-01
 15  1.32994272182483803e-01
 16  8.37578528259888544e-01
 17  1.33892425122736719e-01
 18  8.20138183160045053e-01
 19  1.40644581548400760e-01
 Sym= A
 Ene=  2.93529615529071641e+00
 Spin= Alpha
 Occup=  0.00000000000000000e+00
  1  1.42268231083217335e-03
  2  6.14456259713955667e-03
  3  2.32779502147627097e-02
  4 -4.58631519730827474e-04
  5  1.08183069315062955e-02
  6 -3.35076970802451260e-02
  7 -7.34175061465790035e-01
  8  1.88266006486920989e-02
  9 -4.26981606447939643e-01
 10  9.32127315415539281e-01
 11  1.59902156795359782e-02
 12 -9.41907046431998518e-01
 13  6.65547146591369543e-02
 14 -1.16767676328516035e+00
 15  9.30534324870547491e-02
 16 -9.20709247953015453e-01
 17  4.82735366864431165e-02
 18  9.56956672744680548e-01
 19 -4.00385394566081729e-02
 Sym= A
 Ene=  3.96651893665720046e+00
 Spin= Alpha
 Occup=  0.00000000000000000e+00
  1  4.65107629979430393e-01
  2 -3.30698691268048572e-01
  3 -5.51222675060251549e-02
  4 -5.34396665703512283e-03
  5  1.00838485106559364e-01
  6 -3.60675436381114300e+00
  7  1.54904288066183948e-01
  8  1.47431663943319094e-02
  9 -2.77978866680549552e-01
 10  1.52446919822586358e+00
 11  1.56050464967222191e+00
 12  1.53717927927089604e+00
 13  4.16595932595384508e-04
 14 -1.37706472797768202e-02
 15  2.32390495336259667e-03
 16 -1.21542629628116211e-01
 17  5.36416790364815044e-01
 18 -1.26706064988840239e-01
 19  5.43194957293354097e-01
