[Molden Format]                                                                 
[ATOMS] AU                                                                      
O        1    8        0.0000000000        0.0000000000        0.0000000000     
[Molden Format]                                                                 
[GTO]                                                                           
  1 0
s   9 1.00
   11720.0000000000       7.100000000000000E-004                                
   1759.00000000000       5.470000000000000E-003                                
   400.800000000000       2.783700000000000E-002                                
   113.700000000000       0.104800000000000                                     
   37.0300000000000       0.283062000000000                                     
   13.2700000000000       0.448719000000000                                     
   5.02500000000000       0.270952000000000                                     
   1.01300000000000       1.545800000000000E-002                                
  0.302300000000000      -2.585000000000000E-003                                
s   9 1.00
   11720.0000000000      -1.600000000000000E-004                                
   1759.00000000000      -1.263000000000000E-003                                
   400.800000000000      -6.267000000000000E-003                                
   113.700000000000      -2.571600000000000E-002                                
   37.0300000000000      -7.092400000000000E-002                                
   13.2700000000000      -0.165411000000000                                     
   5.02500000000000      -0.116955000000000                                     
   1.01300000000000       0.557368000000000                                     
  0.302300000000000       0.572759000000000                                     
s   9 1.00
   11720.0000000000       0.000000000000000E+000                                
   1759.00000000000       0.000000000000000E+000                                
   400.800000000000       0.000000000000000E+000                                
   113.700000000000       0.000000000000000E+000                                
   37.0300000000000       0.000000000000000E+000                                
   13.2700000000000       0.000000000000000E+000                                
   5.02500000000000       0.000000000000000E+000                                
   1.01300000000000       0.000000000000000E+000                                
  0.302300000000000        1.00000000000000                                     
p   4 1.00
   17.7000000000000       4.301800000000000E-002                                
   3.85400000000000       0.228913000000000                                     
   1.04600000000000       0.508728000000000                                     
  0.275300000000000       0.460531000000000                                     
p   4 1.00
   17.7000000000000       0.000000000000000E+000                                
   3.85400000000000       0.000000000000000E+000                                
   1.04600000000000       0.000000000000000E+000                                
  0.275300000000000        1.00000000000000                                     
d   1 1.00
   1.18500000000000        1.00000000000000                                     
 
                                                                                
[MO]
 Sym= A
 Ene=  -20.7001505863133     
 Spin= Alpha
 Occup= 1.0
  1        1.0002306751
  2        0.0024756258
  3        0.0002313333
  4        0.0000000000
  5        0.0000000000
  6        0.0000000000
  7        0.0000000000
  8        0.0000000000
  9        0.0000000000
 10       -0.0005641051
 11       -0.0011828259
 12       -0.0005641051
 13        0.0000000000
 14        0.0000000000
 15        0.0000000000
 Sym= A
 Ene=  -1.25252834132722     
 Spin= Alpha
 Occup= 1.0
  1        0.0019570464
  2        1.0107190924
  3       -0.0079117688
  4        0.0000000000
  5        0.0000000000
  6        0.0000000000
  7        0.0000000000
  8        0.0000000000
  9        0.0000000000
 10       -0.0000274822
 11       -0.0026984315
 12       -0.0000274822
 13        0.0000000000
 14        0.0000000000
 15        0.0000000000
 Sym= A
 Ene= -0.572399522971029     
 Spin= Alpha
 Occup= 1.0
  1        0.0000000000
  2        0.0000000000
  3        0.0000000000
  4        0.0000000000
  5        0.0000000000
  6        0.9865945479
  7        0.0000000000
  8        0.0000000000
  9        0.0166013578
 10        0.0000000000
 11        0.0000000000
 12        0.0000000000
 13        0.0000000000
 14        0.0000000000
 15        0.0000000000
 Sym= A
 Ene= -0.572399522971027     
 Spin= Alpha
 Occup= 1.0
  1        0.0000000000
  2        0.0000000000
  3        0.0000000000
  4        0.9865945479
  5        0.0000000000
  6        0.0000000000
  7        0.0166013578
  8        0.0000000000
  9        0.0000000000
 10        0.0000000000
 11        0.0000000000
 12        0.0000000000
 13        0.0000000000
 14        0.0000000000
 15        0.0000000000
 Sym= A
 Ene=  9.400243483509207E-003
 Spin= Alpha
 Occup= 0.0
  1        0.0000000000
  2        0.0000000000
  3        0.0000000000
  4        0.0000000000
  5        0.7967818495
  6        0.0000000000
  7        0.0000000000
  8        0.2399029598
  9        0.0000000000
 10        0.0000000000
 11        0.0000000000
 12        0.0000000000
 13        0.0000000000
 14        0.0000000000
 15        0.0000000000
 Sym= A
 Ene=   1.13604126310501     
 Spin= Alpha
 Occup= 0.0
  1        0.0000000000
  2        0.0000000000
  3        0.0000000000
  4        0.0000000000
  5        0.0000000000
  6        1.3645826706
  7        0.0000000000
  8        0.0000000000
  9       -1.6837989968
 10        0.0000000000
 11        0.0000000000
 12        0.0000000000
 13        0.0000000000
 14        0.0000000000
 15        0.0000000000
 Sym= A
 Ene=   1.13604126310501     
 Spin= Alpha
 Occup= 0.0
  1        0.0000000000
  2        0.0000000000
  3        0.0000000000
  4        1.3645826706
  5        0.0000000000
  6        0.0000000000
  7       -1.6837989968
  8        0.0000000000
  9        0.0000000000
 10        0.0000000000
 11        0.0000000000
 12        0.0000000000
 13        0.0000000000
 14        0.0000000000
 15        0.0000000000
 Sym= A
 Ene=   1.18661100682885     
 Spin= Alpha
 Occup= 0.0
  1        0.0000000000
  2        0.0000000000
  3        0.0000000000
  4        0.0000000000
  5        1.4834397026
  6        0.0000000000
  7        0.0000000000
  8       -1.6667037039
  9        0.0000000000
 10        0.0000000000
 11        0.0000000000
 12        0.0000000000
 13        0.0000000000
 14        0.0000000000
 15        0.0000000000
 Sym= A
 Ene=   1.20425012316674     
 Spin= Alpha
 Occup= 0.0
  1        0.5600486787
  2        2.4274856355
  3       -3.2043851670
  4        0.0000000000
  5        0.0000000000
  6        0.0000000000
  7        0.0000000000
  8        0.0000000000
  9        0.0000000000
 10        0.1526965089
 11        0.1568027798
 12        0.1526965089
 13        0.0000000000
 14        0.0000000000
 15        0.0000000000
 Sym= A
 Ene=   2.86543398793250     
 Spin= Alpha
 Occup= 0.0
  1        0.0071431511
  2        0.0517470643
  3       -0.0247158181
  4        0.0000000000
  5        0.0000000000
  6        0.0000000000
  7        0.0000000000
  8        0.0000000000
  9        0.0000000000
 10        0.2799206862
 11       -0.5860261112
 12        0.2799206862
 13        0.0000000000
 14        0.0000000000
 15        0.0000000000
 Sym= A
 Ene=   2.87492401567841     
 Spin= Alpha
 Occup= 0.0
  1        0.0000000000
  2        0.0000000000
  3        0.0000000000
  4        0.0000000000
  5        0.0000000000
  6        0.0000000000
  7        0.0000000000
  8        0.0000000000
  9        0.0000000000
 10        0.0000000000
 11        0.0000000000
 12        0.0000000000
 13        1.0000000000
 14        0.0000000000
 15        0.0000000000
 Sym= A
 Ene=   2.87492401567841     
 Spin= Alpha
 Occup= 0.0
  1        0.0000000000
  2        0.0000000000
  3        0.0000000000
  4        0.0000000000
  5        0.0000000000
  6        0.0000000000
  7        0.0000000000
  8        0.0000000000
  9        0.0000000000
 10        0.0000000000
 11        0.0000000000
 12        0.0000000000
 13        0.0000000000
 14        0.0000000000
 15        1.0000000000
 Sym= A
 Ene=   2.90248478458832     
 Spin= Alpha
 Occup= 0.0
  1        0.0000000000
  2        0.0000000000
  3        0.0000000000
  4        0.0000000000
  5        0.0000000000
  6        0.0000000000
  7        0.0000000000
  8        0.0000000000
  9        0.0000000000
 10        0.0000000000
 11        0.0000000000
 12        0.0000000000
 13        0.0000000000
 14        1.0000000000
 15        0.0000000000
 Sym= A
 Ene=   2.90248478458833     
 Spin= Alpha
 Occup= 0.0
  1       -0.0000000000
  2       -0.0000000000
  3        0.0000000000
  4        0.0000000000
  5        0.0000000000
  6        0.0000000000
  7        0.0000000000
  8        0.0000000000
  9        0.0000000000
 10        0.5000000000
 11        0.0000000000
 12       -0.5000000000
 13        0.0000000000
 14        0.0000000000
 15        0.0000000000
 Sym= A
 Ene=   5.44588451900774     
 Spin= Alpha
 Occup= 0.0
  1        0.4265980641
  2        3.5512321174
  3       -0.7818339229
  4        0.0000000000
  5        0.0000000000
  6        0.0000000000
  7        0.0000000000
  8        0.0000000000
  9        0.0000000000
 10       -0.7785719737
 11       -0.7680000366
 12       -0.7785719737
 13        0.0000000000
 14        0.0000000000
 15        0.0000000000
