 Molden2AIM, Version 5.0.0 (06/05/2020)           Time: Wed Jul 15 13:05:29 2020
GAUSSIAN             24 MOL ORBITALS     56 PRIMITIVES        3 NUCLEI
  O    1    (CENTRE  1)   0.00000000  0.00000000 -0.12375140  CHARGE =  8.0
  H    2    (CENTRE  2)   0.00000000  1.43090237  0.98217562  CHARGE =  1.0
  H    3    (CENTRE  3)   0.00000000 -1.43090237  0.98217562  CHARGE =  1.0
CENTRE ASSIGNMENTS    1  1  1  1  1  1  1  1  1  1  1  1  1  1  1  1  1  1  1  1
CENTRE ASSIGNMENTS    1  1  1  1  1  1  1  1  1  1  1  1  1  1  1  1  1  1  1  1
CENTRE ASSIGNMENTS    2  2  2  2  2  2  2  2  3  3  3  3  3  3  3  3
TYPE ASSIGNMENTS      1  1  1  1  1  1  1  1  1  1  1  1  1  1  1  1  1  1  1  2
TYPE ASSIGNMENTS      2  2  2  3  3  3  3  4  4  4  4  2  3  4  5  6  7  8  9 10
TYPE ASSIGNMENTS      1  1  1  1  1  2  3  4  1  1  1  1  1  2  3  4
EXPONENTS  0.1172000D+05 0.1759000D+04 0.4008000D+03 0.1137000D+03 0.3703000D+02
EXPONENTS  0.1327000D+02 0.5025000D+01 0.1013000D+01 0.3023000D+00 0.1172000D+05
EXPONENTS  0.1759000D+04 0.4008000D+03 0.1137000D+03 0.3703000D+02 0.1327000D+02
EXPONENTS  0.5025000D+01 0.1013000D+01 0.3023000D+00 0.3023000D+00 0.1770000D+02
EXPONENTS  0.3854000D+01 0.1046000D+01 0.2753000D+00 0.1770000D+02 0.3854000D+01
EXPONENTS  0.1046000D+01 0.2753000D+00 0.1770000D+02 0.3854000D+01 0.1046000D+01
EXPONENTS  0.2753000D+00 0.2753000D+00 0.2753000D+00 0.2753000D+00 0.1185000D+01
EXPONENTS  0.1185000D+01 0.1185000D+01 0.1185000D+01 0.1185000D+01 0.1185000D+01
EXPONENTS  0.1301000D+02 0.1962000D+01 0.4446000D+00 0.1220000D+00 0.1220000D+00
EXPONENTS  0.7270000D+00 0.7270000D+00 0.7270000D+00 0.1301000D+02 0.1962000D+01
EXPONENTS  0.4446000D+00 0.1220000D+00 0.1220000D+00 0.7270000D+00 0.7270000D+00
EXPONENTS  0.7270000D+00
MO    1     MO 0.0        OCC NO =    2.0000000  ORB. ENERGY =    0.000000
  0.57021477D+00  0.10593052D+01  0.17778807D+01  0.26017529D+01  0.30295719D+01
  0.22243958D+01  0.64837882D+00  0.11128709D-01 -0.75140411D-03 -0.29730538D-03
 -0.56590014D-03 -0.92606730D-03 -0.14771032D-02 -0.17562874D-02 -0.18971630D-02
 -0.64752705D-03  0.92840226D-03  0.38520118D-03 -0.40787662D-03  0.00000000D+00
  0.00000000D+00  0.00000000D+00  0.00000000D+00  0.00000000D+00  0.00000000D+00
  0.00000000D+00  0.00000000D+00  0.57183459D-02  0.45259913D-02  0.19703976D-02
  0.33625617D-03  0.00000000D+00  0.00000000D+00 -0.47346566D-03 -0.27940128D-03
  0.25576636D-03  0.23634941D-04  0.00000000D+00  0.00000000D+00  0.00000000D+00
 -0.39812686D-04 -0.67531911D-04 -0.76863035D-04 -0.30548767D-04  0.92558415D-04
  0.00000000D+00  0.54829248D-03  0.46152229D-03 -0.39812686D-04 -0.67531911D-04
 -0.76863035D-04 -0.30548767D-04  0.92558415D-04  0.00000000D+00 -0.54829248D-03
  0.46152229D-03
MO    2     MO 0.0        OCC NO =    1.9854510  ORB. ENERGY =    0.000000
 -0.42691943D-02 -0.79310114D-02 -0.13310982D-01 -0.19479307D-01 -0.22682385D-01
 -0.16654037D-01 -0.48544080D-02 -0.83320574D-04  0.56257577D-05 -0.11856034D+00
 -0.22567137D+00 -0.36929992D+00 -0.58904368D+00 -0.70037759D+00 -0.75655641D+00
 -0.25822280D+00  0.37023106D+00  0.15361169D+00 -0.17386869D-01  0.00000000D+00
  0.00000000D+00  0.00000000D+00  0.00000000D+00  0.00000000D+00  0.00000000D+00
  0.00000000D+00  0.00000000D+00 -0.35447318D+00 -0.28056059D+00 -0.12214251D+00
 -0.20844103D-01  0.00000000D+00  0.00000000D+00 -0.19390758D-01  0.16081127D-02
  0.95650694D-02 -0.11173182D-01  0.00000000D+00  0.00000000D+00  0.00000000D+00
  0.18193395D-01  0.30860383D-01  0.35124471D-01  0.13960017D-01 -0.14354633D-01
  0.00000000D+00 -0.22883331D-01 -0.21144238D-01  0.18193395D-01  0.30860383D-01
  0.35124471D-01  0.13960017D-01 -0.14354633D-01  0.00000000D+00  0.22883331D-01
 -0.21144238D-01
MO    3     MO 0.0        OCC NO =    1.9743960  ORB. ENERGY =    0.000000
  0.00000000D+00  0.00000000D+00  0.00000000D+00  0.00000000D+00  0.00000000D+00
  0.00000000D+00  0.00000000D+00  0.00000000D+00  0.00000000D+00  0.00000000D+00
  0.00000000D+00  0.00000000D+00  0.00000000D+00  0.00000000D+00  0.00000000D+00
  0.00000000D+00  0.00000000D+00  0.00000000D+00  0.00000000D+00  0.20390275D+01
  0.16138620D+01  0.70259740D+00  0.11990103D+00  0.00000000D+00  0.00000000D+00
  0.00000000D+00  0.00000000D+00  0.00000000D+00  0.00000000D+00  0.00000000D+00
  0.00000000D+00  0.21281264D-01  0.00000000D+00  0.00000000D+00  0.00000000D+00
  0.00000000D+00  0.00000000D+00  0.00000000D+00  0.70858439D-01  0.00000000D+00
  0.00000000D+00  0.00000000D+00  0.00000000D+00  0.00000000D+00  0.00000000D+00
  0.31599625D-01  0.00000000D+00  0.00000000D+00  0.00000000D+00  0.00000000D+00
  0.00000000D+00  0.00000000D+00  0.00000000D+00  0.31599625D-01  0.00000000D+00
  0.00000000D+00
MO    4     MO 0.0        OCC NO =    1.9668330  ORB. ENERGY =    0.000000
  0.86696625D-03  0.16105894D-02  0.27031264D-02  0.39557585D-02  0.46062233D-02
  0.33820170D-02  0.98580847D-03  0.16920318D-04 -0.11424502D-05 -0.35519901D-02
 -0.67609666D-02 -0.11063984D-01 -0.17647363D-01 -0.20982854D-01 -0.22665935D-01
 -0.77361860D-02  0.11091880D-01  0.46021057D-02 -0.64846121D-01  0.00000000D+00
  0.00000000D+00  0.00000000D+00  0.00000000D+00  0.00000000D+00  0.00000000D+00
  0.00000000D+00  0.00000000D+00  0.17568240D+01  0.13905018D+01  0.60535717D+00
  0.10330660D+00  0.00000000D+00  0.00000000D+00 -0.88695809D-02 -0.28599531D-01
 -0.10156009D-01  0.38755539D-01  0.00000000D+00  0.00000000D+00  0.00000000D+00
  0.43105181D-01  0.73116776D-01  0.83219580D-01  0.33075139D-01 -0.26413740D-01
  0.00000000D+00 -0.37852039D-01  0.35838837D-02  0.43105181D-01  0.73116776D-01
  0.83219580D-01  0.33075139D-01 -0.26413740D-01  0.00000000D+00  0.37852039D-01
  0.35838837D-02
MO    5     MO 0.0        OCC NO =    1.9640620  ORB. ENERGY =    0.000000
  0.00000000D+00  0.00000000D+00  0.00000000D+00  0.00000000D+00  0.00000000D+00
  0.00000000D+00  0.00000000D+00  0.00000000D+00  0.00000000D+00  0.00000000D+00
  0.00000000D+00  0.00000000D+00  0.00000000D+00  0.00000000D+00  0.00000000D+00
  0.00000000D+00  0.00000000D+00  0.00000000D+00  0.00000000D+00  0.00000000D+00
  0.00000000D+00  0.00000000D+00  0.00000000D+00  0.16099678D+01  0.12742672D+01
  0.55475426D+00  0.94671014D-01  0.00000000D+00  0.00000000D+00  0.00000000D+00
  0.00000000D+00  0.00000000D+00 -0.34798693D-01  0.00000000D+00  0.00000000D+00
  0.00000000D+00  0.00000000D+00  0.00000000D+00  0.00000000D+00  0.99504298D-01
  0.54008405D-01  0.91611271D-01  0.10426953D+00  0.41441318D-01 -0.27283248D-01
  0.00000000D+00 -0.18701200D-01 -0.28771026D-01 -0.54008405D-01 -0.91611271D-01
 -0.10426953D+00 -0.41441318D-01  0.27283248D-01  0.00000000D+00 -0.18701200D-01
  0.28771026D-01
MO    6     MO 0.0        OCC NO =    0.0271640  ORB. ENERGY =    0.000000
  0.00000000D+00  0.00000000D+00  0.00000000D+00  0.00000000D+00  0.00000000D+00
  0.00000000D+00  0.00000000D+00  0.00000000D+00  0.00000000D+00  0.00000000D+00
  0.00000000D+00  0.00000000D+00  0.00000000D+00  0.00000000D+00  0.00000000D+00
  0.00000000D+00  0.00000000D+00  0.00000000D+00  0.00000000D+00  0.00000000D+00
  0.00000000D+00  0.00000000D+00  0.00000000D+00 -0.28245991D+01 -0.22356310D+01
 -0.97328554D+00 -0.16609504D+00  0.00000000D+00  0.00000000D+00  0.00000000D+00
  0.00000000D+00  0.00000000D+00  0.14959709D+00  0.00000000D+00  0.00000000D+00
  0.00000000D+00  0.00000000D+00  0.00000000D+00  0.00000000D+00  0.18465968D+00
  0.94757485D-01  0.16073153D+00  0.18294038D+00  0.72708591D-01 -0.46031388D-01
  0.00000000D+00 -0.23500010D-01 -0.41148132D-02 -0.94757485D-01 -0.16073153D+00
 -0.18294038D+00 -0.72708591D-01  0.46031388D-01  0.00000000D+00 -0.23500010D-01
  0.41148132D-02
MO    7     MO 0.0        OCC NO =    0.0253300  ORB. ENERGY =    0.000000
 -0.58630885D-01 -0.10892037D+00 -0.18280607D+00 -0.26751863D+00 -0.31150803D+00
 -0.22871784D+00 -0.66667904D-01 -0.11442812D-02  0.77261218D-04  0.10406112D+00
  0.19807311D+00  0.32413674D+00  0.51700715D+00  0.61472559D+00  0.66403407D+00
  0.22664369D+00 -0.32495401D+00 -0.13482590D+00  0.39798531D-01  0.00000000D+00
  0.00000000D+00  0.00000000D+00  0.00000000D+00  0.00000000D+00  0.00000000D+00
  0.00000000D+00  0.00000000D+00 -0.26101689D+01 -0.20659124D+01 -0.89939828D+00
 -0.15348588D+00  0.00000000D+00  0.00000000D+00  0.19644656D+00 -0.10795739D+00
  0.87282408D-01  0.20674987D-01  0.00000000D+00  0.00000000D+00  0.00000000D+00
  0.90520194D-01  0.15354406D+00  0.17475979D+00  0.69457265D-01 -0.54069034D-01
  0.00000000D+00 -0.33345514D-01  0.10657696D-01  0.90520194D-01  0.15354406D+00
  0.17475979D+00  0.69457265D-01 -0.54069034D-01  0.00000000D+00  0.33345514D-01
  0.10657696D-01
MO    8     MO 0.0        OCC NO =    0.0158720  ORB. ENERGY =    0.000000
  0.00000000D+00  0.00000000D+00  0.00000000D+00  0.00000000D+00  0.00000000D+00
  0.00000000D+00  0.00000000D+00  0.00000000D+00  0.00000000D+00  0.00000000D+00
  0.00000000D+00  0.00000000D+00  0.00000000D+00  0.00000000D+00  0.00000000D+00
  0.00000000D+00  0.00000000D+00  0.00000000D+00  0.00000000D+00 -0.31319004D+01
 -0.24788556D+01 -0.10791738D+01 -0.18416529D+00  0.00000000D+00  0.00000000D+00
  0.00000000D+00  0.00000000D+00  0.00000000D+00  0.00000000D+00  0.00000000D+00
  0.00000000D+00  0.45458534D+00  0.00000000D+00  0.00000000D+00  0.00000000D+00
  0.00000000D+00  0.00000000D+00  0.00000000D+00  0.15162940D+00  0.00000000D+00
  0.00000000D+00  0.00000000D+00  0.00000000D+00  0.00000000D+00  0.00000000D+00
  0.82888199D-01  0.00000000D+00  0.00000000D+00  0.00000000D+00  0.00000000D+00
  0.00000000D+00  0.00000000D+00  0.00000000D+00  0.82888199D-01  0.00000000D+00
  0.00000000D+00
MO    9     MO 0.0        OCC NO =    0.0106260  ORB. ENERGY =    0.000000
  0.25266190D+00  0.46937766D+00  0.78777813D+00  0.11528355D+01  0.13424019D+01
  0.98562874D+00  0.28729635D+00  0.49311259D-02 -0.33294681D-03 -0.28931253D+00
 -0.55068630D+00 -0.90117062D+00 -0.14373923D+01 -0.17090708D+01 -0.18461591D+01
 -0.63011873D+00  0.90344280D+00  0.37484531D+00 -0.63236171D+00  0.00000000D+00
  0.00000000D+00  0.00000000D+00  0.00000000D+00  0.00000000D+00  0.00000000D+00
  0.00000000D+00  0.00000000D+00 -0.16679600D+01 -0.13201671D+01 -0.57473689D+00
 -0.98081130D-01  0.00000000D+00  0.00000000D+00  0.31013452D+00  0.18066475D+00
 -0.29225848D+00  0.11159373D+00  0.00000000D+00  0.00000000D+00  0.00000000D+00
 -0.36186489D-01 -0.61381007D-01 -0.69862239D-01 -0.27766341D-01  0.34994367D-01
  0.00000000D+00 -0.18301842D-01  0.85435920D-01 -0.36186489D-01 -0.61381007D-01
 -0.69862239D-01 -0.27766341D-01  0.34994367D-01  0.00000000D+00  0.18301842D-01
  0.85435920D-01
MO   10     MO 0.0        OCC NO =    0.0055730  ORB. ENERGY =    0.000000
  0.00000000D+00  0.00000000D+00  0.00000000D+00  0.00000000D+00  0.00000000D+00
  0.00000000D+00  0.00000000D+00  0.00000000D+00  0.00000000D+00  0.00000000D+00
  0.00000000D+00  0.00000000D+00  0.00000000D+00  0.00000000D+00  0.00000000D+00
  0.00000000D+00  0.00000000D+00  0.00000000D+00  0.00000000D+00  0.00000000D+00
  0.00000000D+00  0.00000000D+00  0.00000000D+00 -0.10216161D+01 -0.80859496D+00
 -0.35202311D+00 -0.60074141D-01  0.00000000D+00  0.00000000D+00  0.00000000D+00
  0.00000000D+00  0.00000000D+00  0.28560371D+00  0.00000000D+00  0.00000000D+00
  0.00000000D+00  0.00000000D+00  0.00000000D+00  0.00000000D+00 -0.23210837D+01
 -0.66663555D-01 -0.11307746D+00 -0.12870177D+00 -0.51151771D-01  0.81041875D-01
  0.00000000D+00  0.11965989D+00 -0.16224119D-01  0.66663555D-01  0.11307746D+00
  0.12870177D+00  0.51151771D-01 -0.81041875D-01  0.00000000D+00  0.11965989D+00
  0.16224119D-01
MO   11     MO 0.0        OCC NO =    0.0053500  ORB. ENERGY =    0.000000
 -0.17196438D+00 -0.31946342D+00 -0.53617017D+00 -0.78463209D+00 -0.91365301D+00
 -0.67082939D+00 -0.19553695D+00 -0.33561767D-02  0.22660714D-03  0.17190195D+00
  0.32720343D+00  0.53545206D+00  0.85406097D+00  0.10154852D+01  0.10969395D+01
  0.37440010D+00 -0.53680213D+00 -0.22272330D+00  0.53989170D+00  0.00000000D+00
  0.00000000D+00  0.00000000D+00  0.00000000D+00  0.00000000D+00  0.00000000D+00
  0.00000000D+00  0.00000000D+00  0.33755269D-02  0.26716826D-02  0.11631213D-02
  0.19849127D-03  0.00000000D+00  0.00000000D+00  0.56363091D-01  0.65157789D+00
 -0.13445082D+01  0.69293032D+00  0.00000000D+00  0.00000000D+00  0.00000000D+00
 -0.68126975D-01 -0.11555977D+00 -0.13152707D+00 -0.52274671D-01  0.62012210D-01
  0.00000000D+00 -0.60883887D-01  0.22068835D+00 -0.68126975D-01 -0.11555977D+00
 -0.13152707D+00 -0.52274671D-01  0.62012210D-01  0.00000000D+00  0.60883887D-01
  0.22068835D+00
MO   12     MO 0.0        OCC NO =    0.0048910  ORB. ENERGY =    0.000000
  0.00000000D+00  0.00000000D+00  0.00000000D+00  0.00000000D+00  0.00000000D+00
  0.00000000D+00  0.00000000D+00  0.00000000D+00  0.00000000D+00  0.00000000D+00
  0.00000000D+00  0.00000000D+00  0.00000000D+00  0.00000000D+00  0.00000000D+00
  0.00000000D+00  0.00000000D+00  0.00000000D+00  0.00000000D+00  0.00000000D+00
  0.00000000D+00  0.00000000D+00  0.00000000D+00  0.00000000D+00  0.00000000D+00
  0.00000000D+00  0.00000000D+00  0.00000000D+00  0.00000000D+00  0.00000000D+00
  0.00000000D+00  0.00000000D+00  0.00000000D+00  0.00000000D+00  0.00000000D+00
  0.00000000D+00  0.00000000D+00  0.30482980D+01  0.00000000D+00  0.00000000D+00
  0.00000000D+00  0.00000000D+00  0.00000000D+00  0.00000000D+00  0.00000000D+00
  0.26572622D+00  0.00000000D+00  0.00000000D+00  0.00000000D+00  0.00000000D+00
  0.00000000D+00  0.00000000D+00  0.00000000D+00 -0.26572622D+00  0.00000000D+00
  0.00000000D+00
MO   13     MO 0.0        OCC NO =    0.0043030  ORB. ENERGY =    0.000000
 -0.64054974D-01 -0.11899686D+00 -0.19971791D+00 -0.29226744D+00 -0.34032641D+00
 -0.24987710D+00 -0.72835518D-01 -0.12501415D-02  0.84408845D-04  0.60067188D-01
  0.11433372D+00  0.18710142D+00  0.29843199D+00  0.35483799D+00  0.38330033D+00
  0.13082551D+00 -0.18757317D+00 -0.77825540D-01  0.23329756D+00  0.00000000D+00
  0.00000000D+00  0.00000000D+00  0.00000000D+00  0.00000000D+00  0.00000000D+00
  0.00000000D+00  0.00000000D+00 -0.18416766D+00 -0.14576614D+00 -0.63459524D-01
 -0.10829620D-01  0.00000000D+00  0.00000000D+00  0.14216718D+00  0.16070672D+01
  0.18610758D-01 -0.16256779D+01  0.00000000D+00  0.00000000D+00  0.00000000D+00
 -0.45506317D-01 -0.77189680D-01 -0.87855252D-01 -0.34917560D-01  0.41512980D-01
  0.00000000D+00  0.16961206D+00 -0.88200990D-01 -0.45506317D-01 -0.77189680D-01
 -0.87855252D-01 -0.34917560D-01  0.41512980D-01  0.00000000D+00 -0.16961206D+00
 -0.88200990D-01
MO   14     MO 0.0        OCC NO =    0.0042060  ORB. ENERGY =    0.000000
  0.00000000D+00  0.00000000D+00  0.00000000D+00  0.00000000D+00  0.00000000D+00
  0.00000000D+00  0.00000000D+00  0.00000000D+00  0.00000000D+00  0.00000000D+00
  0.00000000D+00  0.00000000D+00  0.00000000D+00  0.00000000D+00  0.00000000D+00
  0.00000000D+00  0.00000000D+00  0.00000000D+00  0.00000000D+00  0.22008319D+00
  0.17419279D+00  0.75835111D-01  0.12941563D-01  0.00000000D+00  0.00000000D+00
  0.00000000D+00  0.00000000D+00  0.00000000D+00  0.00000000D+00  0.00000000D+00
  0.00000000D+00 -0.92169747D-01  0.00000000D+00  0.00000000D+00  0.00000000D+00
  0.00000000D+00  0.00000000D+00  0.00000000D+00  0.34029370D+01  0.00000000D+00
  0.00000000D+00  0.00000000D+00  0.00000000D+00  0.00000000D+00  0.00000000D+00
  0.19510420D+00  0.00000000D+00  0.00000000D+00  0.00000000D+00  0.00000000D+00
  0.00000000D+00  0.00000000D+00  0.00000000D+00  0.19510420D+00  0.00000000D+00
  0.00000000D+00
MO   15     MO 0.0        OCC NO =    0.0011700  ORB. ENERGY =    0.000000
  0.00000000D+00  0.00000000D+00  0.00000000D+00  0.00000000D+00  0.00000000D+00
  0.00000000D+00  0.00000000D+00  0.00000000D+00  0.00000000D+00  0.00000000D+00
  0.00000000D+00  0.00000000D+00  0.00000000D+00  0.00000000D+00  0.00000000D+00
  0.00000000D+00  0.00000000D+00  0.00000000D+00  0.00000000D+00  0.00000000D+00
  0.00000000D+00  0.00000000D+00  0.00000000D+00  0.15046400D+01  0.11909016D+01
  0.51846094D+00  0.88477415D-01  0.00000000D+00  0.00000000D+00  0.00000000D+00
  0.00000000D+00  0.00000000D+00 -0.38041203D+00  0.00000000D+00  0.00000000D+00
  0.00000000D+00  0.00000000D+00  0.00000000D+00  0.00000000D+00 -0.27105770D+01
  0.10924270D+00  0.18530195D+00  0.21090577D+00  0.83823275D-01 -0.71580714D-01
  0.00000000D+00  0.22755856D-02  0.30287205D+00 -0.10924270D+00 -0.18530195D+00
 -0.21090577D+00 -0.83823275D-01  0.71580714D-01  0.00000000D+00  0.22755856D-02
 -0.30287205D+00
MO   16     MO 0.0        OCC NO =    0.0011210  ORB. ENERGY =    0.000000
  0.20677959D+00  0.38414069D+00  0.64472101D+00  0.94348552D+00  0.10986275D+01
  0.80664280D+00  0.23512457D+00  0.40356547D-02 -0.27248510D-03 -0.17931521D+00
 -0.34131406D+00 -0.55854340D+00 -0.89089231D+00 -0.10592780D+01 -0.11442450D+01
 -0.39054608D+00  0.55995169D+00  0.23232823D+00 -0.75574219D+00  0.00000000D+00
  0.00000000D+00  0.00000000D+00  0.00000000D+00  0.00000000D+00  0.00000000D+00
  0.00000000D+00  0.00000000D+00  0.39217781D+00  0.31040329D+00  0.13513457D+00
  0.23061250D-01  0.00000000D+00  0.00000000D+00 -0.32296592D+00  0.14336309D+01
 -0.16928143D+01  0.25918345D+00  0.00000000D+00  0.00000000D+00  0.00000000D+00
  0.20422700D+00  0.34641822D+00  0.39428405D+00  0.15670591D+00 -0.17860243D+00
  0.00000000D+00 -0.34957654D-01 -0.12994468D+00  0.20422700D+00  0.34641822D+00
  0.39428405D+00  0.15670591D+00 -0.17860243D+00  0.00000000D+00  0.34957654D-01
 -0.12994468D+00
MO   17     MO 0.0        OCC NO =    0.0007310  ORB. ENERGY =    0.000000
  0.00000000D+00  0.00000000D+00  0.00000000D+00  0.00000000D+00  0.00000000D+00
  0.00000000D+00  0.00000000D+00  0.00000000D+00  0.00000000D+00  0.00000000D+00
  0.00000000D+00  0.00000000D+00  0.00000000D+00  0.00000000D+00  0.00000000D+00
  0.00000000D+00  0.00000000D+00  0.00000000D+00  0.00000000D+00  0.00000000D+00
  0.00000000D+00  0.00000000D+00  0.00000000D+00  0.00000000D+00  0.00000000D+00
  0.00000000D+00  0.00000000D+00  0.00000000D+00  0.00000000D+00  0.00000000D+00
  0.00000000D+00  0.00000000D+00  0.00000000D+00  0.00000000D+00  0.00000000D+00
  0.00000000D+00  0.00000000D+00  0.27757767D+01  0.00000000D+00  0.00000000D+00
  0.00000000D+00  0.00000000D+00  0.00000000D+00  0.00000000D+00  0.00000000D+00
 -0.69737801D+00  0.00000000D+00  0.00000000D+00  0.00000000D+00  0.00000000D+00
  0.00000000D+00  0.00000000D+00  0.00000000D+00  0.69737801D+00  0.00000000D+00
  0.00000000D+00
MO   18     MO 0.0        OCC NO =    0.0006840  ORB. ENERGY =    0.000000
  0.00000000D+00  0.00000000D+00  0.00000000D+00  0.00000000D+00  0.00000000D+00
  0.00000000D+00  0.00000000D+00  0.00000000D+00  0.00000000D+00  0.00000000D+00
  0.00000000D+00  0.00000000D+00  0.00000000D+00  0.00000000D+00  0.00000000D+00
  0.00000000D+00  0.00000000D+00  0.00000000D+00  0.00000000D+00  0.00000000D+00
  0.00000000D+00  0.00000000D+00  0.00000000D+00  0.20560417D+01  0.16273284D+01
  0.70846004D+00  0.12090152D+00  0.00000000D+00  0.00000000D+00  0.00000000D+00
  0.00000000D+00  0.00000000D+00 -0.32170901D-01  0.00000000D+00  0.00000000D+00
  0.00000000D+00  0.00000000D+00  0.00000000D+00  0.00000000D+00  0.29215090D+01
 -0.16609316D+00 -0.28173403D+00 -0.32066222D+00 -0.12744534D+00  0.25249619D+00
  0.00000000D+00  0.48699164D+00  0.49505323D+00  0.16609316D+00  0.28173403D+00
  0.32066222D+00  0.12744534D+00 -0.25249619D+00  0.00000000D+00  0.48699164D+00
 -0.49505323D+00
MO   19     MO 0.0        OCC NO =    0.0006320  ORB. ENERGY =    0.000000
  0.18133245D+00  0.33686677D+00  0.56537900D+00  0.82737633D+00  0.96342590D+00
  0.70737403D+00  0.20618918D+00  0.35390105D-02 -0.23895197D-03 -0.18931385D+00
 -0.36034577D+00 -0.58968785D+00 -0.94056857D+00 -0.11183435D+01 -0.12080482D+01
 -0.41232298D+00  0.59117466D+00  0.24528288D+00 -0.16183599D+00  0.00000000D+00
  0.00000000D+00  0.00000000D+00  0.00000000D+00  0.00000000D+00  0.00000000D+00
  0.00000000D+00  0.00000000D+00  0.19306472D+01  0.15280804D+01  0.66525228D+00
  0.11352794D+00  0.00000000D+00  0.00000000D+00 -0.77085766D-01 -0.81638466D+00
  0.59146444D+00  0.22492023D+00  0.00000000D+00  0.00000000D+00  0.00000000D+00
 -0.12186604D+00 -0.20671417D+00 -0.23527660D+00 -0.93509319D-01  0.15250440D+00
  0.00000000D+00  0.67634781D+00  0.46261916D+00 -0.12186604D+00 -0.20671417D+00
 -0.23527660D+00 -0.93509319D-01  0.15250440D+00  0.00000000D+00 -0.67634781D+00
  0.46261916D+00
MO   20     MO 0.0        OCC NO =    0.0005360  ORB. ENERGY =    0.000000
  0.00000000D+00  0.00000000D+00  0.00000000D+00  0.00000000D+00  0.00000000D+00
  0.00000000D+00  0.00000000D+00  0.00000000D+00  0.00000000D+00  0.00000000D+00
  0.00000000D+00  0.00000000D+00  0.00000000D+00  0.00000000D+00  0.00000000D+00
  0.00000000D+00  0.00000000D+00  0.00000000D+00  0.00000000D+00  0.19255149D+00
  0.15240183D+00  0.66348383D-01  0.11322615D-01  0.00000000D+00  0.00000000D+00
  0.00000000D+00  0.00000000D+00  0.00000000D+00  0.00000000D+00  0.00000000D+00
  0.00000000D+00 -0.22524016D+00  0.00000000D+00  0.00000000D+00  0.00000000D+00
  0.00000000D+00  0.00000000D+00  0.00000000D+00 -0.21877778D+01  0.00000000D+00
  0.00000000D+00  0.00000000D+00  0.00000000D+00  0.00000000D+00  0.00000000D+00
  0.79966967D+00  0.00000000D+00  0.00000000D+00  0.00000000D+00  0.00000000D+00
  0.00000000D+00  0.00000000D+00  0.00000000D+00  0.79966967D+00  0.00000000D+00
  0.00000000D+00
MO   21     MO 0.0        OCC NO =    0.0004890  ORB. ENERGY =    0.000000
 -0.95649491D-01 -0.17769095D+00 -0.29822690D+00 -0.43642562D+00 -0.50818923D+00
 -0.37312664D+00 -0.10876096D+00 -0.18667622D-02  0.12604272D-03  0.80674375D-01
  0.15355807D+00  0.25129011D+00  0.40081474D+00  0.47657189D+00  0.51479877D+00
  0.17570769D+00 -0.25192371D+00 -0.10452507D+00  0.34521046D+00  0.00000000D+00
  0.00000000D+00  0.00000000D+00  0.00000000D+00  0.00000000D+00  0.00000000D+00
  0.00000000D+00  0.00000000D+00 -0.30028568D+00 -0.23767194D+00 -0.10347086D+00
 -0.17657713D-01  0.00000000D+00  0.00000000D+00  0.31321163D+00 -0.51426246D+00
 -0.11360502D+01  0.16503126D+01  0.00000000D+00  0.00000000D+00  0.00000000D+00
 -0.93504622D-01 -0.15860637D+00 -0.18052158D+00 -0.71747253D-01  0.75647797D-01
  0.00000000D+00  0.47135985D+00 -0.58601125D+00 -0.93504622D-01 -0.15860637D+00
 -0.18052158D+00 -0.71747253D-01  0.75647797D-01  0.00000000D+00 -0.47135985D+00
 -0.58601125D+00
MO   22     MO 0.0        OCC NO =    0.0004870  ORB. ENERGY =    0.000000
  0.00000000D+00  0.00000000D+00  0.00000000D+00  0.00000000D+00  0.00000000D+00
  0.00000000D+00  0.00000000D+00  0.00000000D+00  0.00000000D+00  0.00000000D+00
  0.00000000D+00  0.00000000D+00  0.00000000D+00  0.00000000D+00  0.00000000D+00
  0.00000000D+00  0.00000000D+00  0.00000000D+00  0.00000000D+00  0.00000000D+00
  0.00000000D+00  0.00000000D+00  0.00000000D+00 -0.87127028D+00 -0.68959832D+00
 -0.30021774D+00 -0.51233348D-01  0.00000000D+00  0.00000000D+00  0.00000000D+00
  0.00000000D+00  0.00000000D+00  0.35103267D+00  0.00000000D+00  0.00000000D+00
  0.00000000D+00  0.00000000D+00  0.00000000D+00  0.00000000D+00  0.31357931D-01
 -0.67150422D-01 -0.11390330D+00 -0.12964172D+00 -0.51525350D-01  0.40421882D-01
  0.00000000D+00 -0.59574673D+00  0.49297421D+00  0.67150422D-01  0.11390330D+00
  0.12964172D+00  0.51525350D-01 -0.40421882D-01  0.00000000D+00 -0.59574673D+00
 -0.49297421D+00
MO   23     MO 0.0        OCC NO =    0.0000550  ORB. ENERGY =    0.000000
  0.18460148D+00  0.34293975D+00  0.57557158D+00  0.84229216D+00  0.98079441D+00
  0.72012647D+00  0.20990633D+00  0.36028113D-02 -0.24325977D-03 -0.14118513D+00
 -0.26873609D+00 -0.43977318D+00 -0.70145049D+00 -0.83403017D+00 -0.90092956D+00
 -0.30749928D+00  0.44088200D+00  0.18292531D+00 -0.11395767D+01  0.00000000D+00
  0.00000000D+00  0.00000000D+00  0.00000000D+00  0.00000000D+00  0.00000000D+00
  0.00000000D+00  0.00000000D+00 -0.80851022D+00 -0.63992461D+00 -0.27859221D+00
 -0.47542865D-01  0.00000000D+00  0.00000000D+00 -0.28414621D+00  0.86273412D+00
 -0.68789814D+00 -0.17483598D+00  0.00000000D+00  0.00000000D+00  0.00000000D+00
  0.11920782D+00  0.20220520D+00  0.23014461D+00  0.91469639D-01  0.59655447D-01
  0.00000000D+00 -0.75866115D+00 -0.52333240D+00  0.11920782D+00  0.20220520D+00
  0.23014461D+00  0.91469639D-01  0.59655447D-01  0.00000000D+00  0.75866115D+00
 -0.52333240D+00
MO   24     MO 0.0        OCC NO =    0.0000380  ORB. ENERGY =    0.000000
  0.00000000D+00  0.00000000D+00  0.00000000D+00  0.00000000D+00  0.00000000D+00
  0.00000000D+00  0.00000000D+00  0.00000000D+00  0.00000000D+00  0.00000000D+00
  0.00000000D+00  0.00000000D+00  0.00000000D+00  0.00000000D+00  0.00000000D+00
  0.00000000D+00  0.00000000D+00  0.00000000D+00  0.00000000D+00  0.00000000D+00
  0.00000000D+00  0.00000000D+00  0.00000000D+00 -0.82189122D+00 -0.65051548D+00
 -0.28320296D+00 -0.48329709D-01  0.00000000D+00  0.00000000D+00  0.00000000D+00
  0.00000000D+00  0.00000000D+00 -0.44721292D+00  0.00000000D+00  0.00000000D+00
  0.00000000D+00  0.00000000D+00  0.00000000D+00  0.00000000D+00 -0.22531667D+01
  0.91163362D-01  0.15463503D+00  0.17600150D+00  0.69950776D-01  0.16855906D+00
  0.00000000D+00 -0.70996787D+00 -0.64689241D+00 -0.91163362D-01 -0.15463503D+00
 -0.17600150D+00 -0.69950776D-01 -0.16855906D+00  0.00000000D+00 -0.70996787D+00
  0.64689241D+00
END DATA
 THE  HF ENERGY =      0.000000000000 THE VIRIAL(-V/T)=   2.00000000


 $MOSPIN $END
 3 3 3 3 3 3 3 3 3 3 3 3 3 3 3 3 3 3 3 3 3 3 3 3


