[Molden Format]                                                                 
[ATOMS] AU                                                                      
H        1    1        0.0000000000        0.0000000000        0.0000000000     
[Molden Format]                                                                 
[GTO]                                                                           
  1 0
f   1 1.00
  0.500000000000000        1.00000000000000                                     
 
                                                                                
[MO]
 Sym= A
 Ene=   1.73416952361348     
 Spin= Alpha
 Occup= 0.0
  1        0.0000000000
  2        0.1269377852
  3        0.0000000000
  4        0.0000000000
  5       -0.6258093593
  6        0.0000000000
  7        0.0000000000
  8        0.2449960038
  9        0.0000000000
 10        0.0000000000
 Sym= A
 Ene=   1.73416952361348     
 Spin= Alpha
 Occup= 0.0
  1        0.0000000000
  2        0.0000000000
  3        0.2581988897
  4        0.0000000000
  5        0.0000000000
  6       -0.3872983346
  7        0.0000000000
  8        0.0000000000
  9       -0.3872983346
 10        0.0000000000
 Sym= A
 Ene=   1.73416952361348     
 Spin= Alpha
 Occup= 0.0
  1        0.0000000000
  2        0.0000000000
  3        0.0000000000
  4        0.0000000000
  5        0.0000000000
  6        0.0000000000
  7        0.0000000000
  8        0.0000000000
  9        0.0000000000
 10        1.0000000000
 Sym= A
 Ene=   1.73416952361348     
 Spin= Alpha
 Occup= 0.0
  1       -0.0818845520
  2        0.0000000000
  3        0.0000000000
  4       -0.3513629552
  5        0.0000000000
  6        0.0000000000
  7        0.5970166113
  8        0.0000000000
  9        0.0000000000
 10        0.0000000000
 Sym= A
 Ene=   1.73416952361348     
 Spin= Alpha
 Occup= 0.0
  1        0.0000000000
  2       -0.2248409779
  3        0.0000000000
  4        0.0000000000
  5        0.0914475029
  6        0.0000000000
  7        0.0000000000
  8        0.5830754309
  9        0.0000000000
 10        0.0000000000
 Sym= A
 Ene=   1.73416952361348     
 Spin= Alpha
 Occup= 0.0
  1        0.0000000000
  2        0.0000000000
  3        0.0000000000
  4        0.0000000000
  5        0.0000000000
  6        0.5000000000
  7        0.0000000000
  8        0.0000000000
  9       -0.5000000000
 10        0.0000000000
 Sym= A
 Ene=   1.73416952361348     
 Spin= Alpha
 Occup= 0.0
  1       -0.2448705511
  2        0.0000000000
  3        0.0000000000
  4        0.5258745798
  5        0.0000000000
  6        0.0000000000
  7        0.2087370735
  8        0.0000000000
  9        0.0000000000
 10        0.0000000000
 Sym= A
 Ene=   1.73416952361348     
 Spin= Beta
 Occup= 0.0
  1        0.0000000000
  2        0.1269377852
  3        0.0000000000
  4        0.0000000000
  5       -0.6258093593
  6        0.0000000000
  7        0.0000000000
  8        0.2449960038
  9        0.0000000000
 10        0.0000000000
 Sym= A
 Ene=   1.73416952361348     
 Spin= Beta
 Occup= 0.0
  1        0.0000000000
  2        0.0000000000
  3        0.2581988897
  4        0.0000000000
  5        0.0000000000
  6       -0.3872983346
  7        0.0000000000
  8        0.0000000000
  9       -0.3872983346
 10        0.0000000000
 Sym= A
 Ene=   1.73416952361348     
 Spin= Beta
 Occup= 0.0
  1        0.0000000000
  2        0.0000000000
  3        0.0000000000
  4        0.0000000000
  5        0.0000000000
  6        0.0000000000
  7        0.0000000000
  8        0.0000000000
  9        0.0000000000
 10        1.0000000000
 Sym= A
 Ene=   1.73416952361348     
 Spin= Beta
 Occup= 0.0
  1       -0.0818845520
  2        0.0000000000
  3        0.0000000000
  4       -0.3513629552
  5        0.0000000000
  6        0.0000000000
  7        0.5970166113
  8        0.0000000000
  9        0.0000000000
 10        0.0000000000
 Sym= A
 Ene=   1.73416952361348     
 Spin= Beta
 Occup= 0.0
  1        0.0000000000
  2       -0.2248409779
  3        0.0000000000
  4        0.0000000000
  5        0.0914475029
  6        0.0000000000
  7        0.0000000000
  8        0.5830754309
  9        0.0000000000
 10        0.0000000000
 Sym= A
 Ene=   1.73416952361348     
 Spin= Beta
 Occup= 0.0
  1        0.0000000000
  2        0.0000000000
  3        0.0000000000
  4        0.0000000000
  5        0.0000000000
  6        0.5000000000
  7        0.0000000000
  8        0.0000000000
  9       -0.5000000000
 10        0.0000000000
 Sym= A
 Ene=   1.73416952361348     
 Spin= Beta
 Occup= 0.0
  1       -0.2448705511
  2        0.0000000000
  3        0.0000000000
  4        0.5258745798
  5        0.0000000000
  6        0.0000000000
  7        0.2087370735
  8        0.0000000000
  9        0.0000000000
 10        0.0000000000
