[Molden Format]                                                                 
[ATOMS] AU                                                                      
H        1    1        0.0000000000        0.0000000000        0.0000000000     
[Molden Format]                                                                 
[GTO]                                                                           
  1 0
p   1 1.00
  0.500000000000000        1.00000000000000                                     
 
                                                                                
[MO]
 Sym= A
 Ene=  0.497747221936325     
 Spin= Alpha
 Occup= 0.0
  1        1.0000000000
  2        0.0000000000
  3        0.0000000000
 Sym= A
 Ene=  0.497747221936325     
 Spin= Alpha
 Occup= 0.0
  1        0.0000000000
  2        1.0000000000
  3        0.0000000000
 Sym= A
 Ene=  0.497747221936325     
 Spin= Alpha
 Occup= 0.0
  1        0.0000000000
  2        0.0000000000
  3        1.0000000000
 Sym= A
 Ene=  0.497747221936325     
 Spin= Beta
 Occup= 0.0
  1        1.0000000000
  2        0.0000000000
  3        0.0000000000
 Sym= A
 Ene=  0.497747221936325     
 Spin= Beta
 Occup= 0.0
  1        0.0000000000
  2        1.0000000000
  3        0.0000000000
 Sym= A
 Ene=  0.497747221936325     
 Spin= Beta
 Occup= 0.0
  1        0.0000000000
  2        0.0000000000
  3        1.0000000000
