[Molden Format]                                                                 
[ATOMS] AU                                                                      
H        1    1        0.0000000000        0.0000000000        0.0000000000     
[Molden Format]                                                                 
[GTO]                                                                           
  1 0
s   1 1.00
  0.500000000000000        1.00000000000000                                     
 
                                                                                
[MO]
 Sym= A
 Ene= -0.378379167095513     
 Spin= Alpha
 Occup= 0.0
  1        1.0000000000
 Sym= A
 Ene= -0.378379167095513     
 Spin= Beta
 Occup= 0.0
  1        1.0000000000
