 He atom - decontracted 6-31G(3df, 3pd) basis set (only t
GAUSSIAN              1 MOL ORBITALS      6 PRIMITIVES        1 NUCLEI
  He   1    (CENTRE  1)   0.00000000  0.00000000  0.00000000  CHARGE =  2.0
CENTRE ASSIGNMENTS    1  1  1  1  1  1
TYPE ASSIGNMENTS      5  6  7  8  9 10
EXPONENTS  0.2000000D+01 0.2000000D+01 0.2000000D+01 0.2000000D+01 0.2000000D+01
EXPONENTS  0.2000000D+01
MO    1     MO 0.0        OCC NO =    2.0000000  ORB. ENERGY =    0.796796
  0.24758649D+01  0.24758649D+01  0.24758649D+01  0.00000000D+00  0.00000000D+00
  0.00000000D+00
END DATA
 TOTAL ENERGY =      0.589586959403 THE VIRIAL(-V/T)=   0.86600296
