 He atom - decontracted 6-31G(3df,3pd) basis set
GAUSSIAN              1 MOL ORBITALS     19 PRIMITIVES        1 NUCLEI
  He   1    (CENTRE  1)   0.00000000  0.00000000  0.00000000  CHARGE =  2.0
CENTRE ASSIGNMENTS    1  1  1  1  1  1  1  1  1  1  1  1  1  1  1  1  1  1  1
TYPE ASSIGNMENTS      1  1  1  1  2  3  4  2  3  4  2  3  4  5  6  7  8  9 10
EXPONENTS  0.3842163D+02 0.5778030D+01 0.1241774D+01 0.2979640D+00 0.3000000D+01
EXPONENTS  0.3000000D+01 0.3000000D+01 0.7500000D+00 0.7500000D+00 0.7500000D+00
EXPONENTS  0.1875000D+00 0.1875000D+00 0.1875000D+00 0.2000000D+01 0.2000000D+01
EXPONENTS  0.2000000D+01 0.2000000D+01 0.2000000D+01 0.2000000D+01
MO    1     MO 0.0        OCC NO =    2.0000000  ORB. ENERGY =   -0.914340
  0.26643193D+00  0.38773653D+00  0.41207483D+00  0.14812927D+00  0.00000000D+00
  0.00000000D+00  0.00000000D+00  0.00000000D+00  0.00000000D+00  0.00000000D+00
  0.00000000D+00  0.00000000D+00  0.00000000D+00 -0.48136347D-01 -0.48136347D-01
 -0.48136347D-01  0.00000000D+00  0.00000000D+00  0.00000000D+00
END DATA
 TOTAL ENERGY =     -2.855319016184 THE VIRIAL(-V/T)=   2.00012891
