He atom - aug-cc-pv6z diffuse basis set                                 
SP        RHF                                                         Gen                 
Number of atoms                            I                1
Info1-9                                    I   N=           9
          30          23           0           0           0         111
           1           1           2
Charge                                     I                0
Multiplicity                               I                1
Number of electrons                        I                2
Number of alpha electrons                  I                1
Number of beta electrons                   I                1
Number of basis functions                  I               56
Number of independent functions            I               56
Number of point charges in /Mol/           I                0
Number of translation vectors              I                0
Atomic numbers                             I   N=           1
           2
Nuclear charges                            R   N=           1
  2.00000000E+00
Current cartesian coordinates              R   N=           3
  0.00000000E+00  0.00000000E+00  0.00000000E+00
Force Field                                I                0
Int Atom Types                             I   N=           1
           0
MM charges                                 R   N=           1
  0.00000000E+00
Integer atomic weights                     I   N=           1
           4
Real atomic weights                        R   N=           1
  4.00260325E+00
Atom fragment info                         I   N=           1
           0
Atom residue num                           I   N=           1
           0
Nuclear spins                              I   N=           1
           0
Nuclear ZEff                               R   N=           1
 -2.00000000E+00
Nuclear ZNuc                               R   N=           1
  2.00000000E+00
Nuclear QMom                               R   N=           1
  0.00000000E+00
Nuclear GFac                               R   N=           1
  0.00000000E+00
MicOpt                                     I   N=           1
          -1
Number of contracted shells                I                6
Number of primitive shells                 I                6
Pure/Cartesian d shells                    I                1
Pure/Cartesian f shells                    I                1
Highest angular momentum                   I                5
Largest degree of contraction              I                1
Shell types                                I   N=           6
           0           1           2           3           4           5
Number of primitives per shell             I   N=           6
           1           1           1           1           1           1
Shell to atom map                          I   N=           6
           1           1           1           1           1           1
Primitive exponents                        R   N=           6
  4.47300000E-02  1.28000000E-01  2.41000000E-01  4.07000000E-01  6.86000000E-01
  1.01600000E+00
Contraction coefficients                   R   N=           6
  1.00000000E+00  1.00000000E+00  1.00000000E+00  1.00000000E+00  1.00000000E+00
  1.00000000E+00
Coordinates of each shell                  R   N=          18
  0.00000000E+00  0.00000000E+00  0.00000000E+00  0.00000000E+00  0.00000000E+00
  0.00000000E+00  0.00000000E+00  0.00000000E+00  0.00000000E+00  0.00000000E+00
  0.00000000E+00  0.00000000E+00  0.00000000E+00  0.00000000E+00  0.00000000E+00
  0.00000000E+00  0.00000000E+00  0.00000000E+00
Constraint Structure                       R   N=           3
  0.00000000E+00  0.00000000E+00  0.00000000E+00
Num ILSW                                   I              100
ILSW                                       I   N=         100
           0           1           0           0           2           0
           0           0           0           0           0          -1
           0           0           0           1           0           0
           0           0           0           0           0           0
           1           0           0           0           0           0
           0           0      100000           0          -1           0
           0           0           0           0           0           0
           0           0           0           1           0           0
           0           0           1           0           0           0
           0           0           4          41           0           0
           0           0           0           0           0           0
           0           0           0           1           0           0
           0           0           0           0           0           0
           0           0           0           0           0           0
           0           0           0           0           0           0
           0           0           0           0           0           0
           0           0           0           0
Num RLSW                                   I               41
RLSW                                       R   N=          41
  1.00000000E+00  1.00000000E+00  1.00000000E+00  1.00000000E+00  1.00000000E+00
  0.00000000E+00  0.00000000E+00  1.00000000E+00  0.00000000E+00  0.00000000E+00
  0.00000000E+00  0.00000000E+00  1.00000000E+00  0.00000000E+00  0.00000000E+00
  0.00000000E+00  0.00000000E+00  1.00000000E+00  0.00000000E+00  0.00000000E+00
  0.00000000E+00  0.00000000E+00  1.00000000E+00  0.00000000E+00  0.00000000E+00
  0.00000000E+00  0.00000000E+00  1.00000000E+00  0.00000000E+00  0.00000000E+00
  0.00000000E+00  0.00000000E+00  1.00000000E+00  0.00000000E+00  0.00000000E+00
  0.00000000E+00  0.00000000E+00  0.00000000E+00  1.00000000E+00  1.00000000E+00
  0.00000000E+00
MxBond                                     I                1
NBond                                      I   N=           1
           0
IBond                                      I   N=           1
           0
RBond                                      R   N=           1
  0.00000000E+00
Virial Ratio                               R      5.436661184235276E+00
SCF Energy                                 R     -1.048675168345635E+00
Total Energy                               R     -1.048675168345635E+00
RMS Density                                R      7.515169564497953E-10
External E-field                           R   N=          35
  0.00000000E+00  0.00000000E+00  0.00000000E+00  0.00000000E+00  0.00000000E+00
  0.00000000E+00  0.00000000E+00  0.00000000E+00  0.00000000E+00  0.00000000E+00
  0.00000000E+00  0.00000000E+00  0.00000000E+00  0.00000000E+00  0.00000000E+00
  0.00000000E+00  0.00000000E+00  0.00000000E+00  0.00000000E+00  0.00000000E+00
  0.00000000E+00  0.00000000E+00  0.00000000E+00  0.00000000E+00  0.00000000E+00
  0.00000000E+00  0.00000000E+00  0.00000000E+00  0.00000000E+00  0.00000000E+00
  0.00000000E+00  0.00000000E+00  0.00000000E+00  0.00000000E+00  0.00000000E+00
IOpCl                                      I                0
IROHF                                      I                0
Alpha Orbital Energies                     R   N=          56
 -3.83109139E-01  6.72890652E-02  6.72890652E-02  6.72890652E-02  3.33282755E-01
  5.51389775E-01  5.51389775E-01  5.51389775E-01  5.51389775E-01  5.51389775E-01
  8.85311032E-01  8.85311032E-01  8.85311032E-01  1.19945800E+00  1.37176438E+00
  1.37176438E+00  1.37176438E+00  1.37176438E+00  1.37176438E+00  1.37176438E+00
  1.37176438E+00  1.89666973E+00  1.89666973E+00  1.89666973E+00  1.89666973E+00
  1.89666973E+00  2.34917820E+00  2.34917820E+00  2.34917820E+00  3.38248909E+00
  3.38248909E+00  3.38248909E+00  3.38248909E+00  3.38248909E+00  3.38248909E+00
  3.38248909E+00  3.38248909E+00  3.38248909E+00  3.76464541E+00  3.76464541E+00
  3.76464541E+00  3.76464541E+00  3.76464541E+00  3.76464541E+00  3.76464541E+00
  6.12473238E+00  6.12473238E+00  6.12473238E+00  6.12473238E+00  6.12473238E+00
  6.12473238E+00  6.12473238E+00  6.12473238E+00  6.12473238E+00  6.12473238E+00
  6.12473238E+00
Alpha MO coefficients                      R   N=        3136
  8.17125208E-01  0.00000000E+00  0.00000000E+00  0.00000000E+00  1.58772965E-02
  1.58772965E-02  1.58772965E-02  0.00000000E+00  0.00000000E+00  0.00000000E+00
  0.00000000E+00  0.00000000E+00  0.00000000E+00  0.00000000E+00  0.00000000E+00
  0.00000000E+00  0.00000000E+00  0.00000000E+00  0.00000000E+00  0.00000000E+00
  7.73667846E-02  0.00000000E+00  4.53013505E-02  0.00000000E+00  7.73667846E-02
  0.00000000E+00  0.00000000E+00  0.00000000E+00  0.00000000E+00  4.53013505E-02
  0.00000000E+00  4.53013505E-02  0.00000000E+00  0.00000000E+00  7.73667846E-02
  0.00000000E+00  0.00000000E+00  0.00000000E+00  0.00000000E+00  0.00000000E+00
  0.00000000E+00  0.00000000E+00  0.00000000E+00  0.00000000E+00  0.00000000E+00
  0.00000000E+00  0.00000000E+00  0.00000000E+00  0.00000000E+00  0.00000000E+00
  0.00000000E+00  0.00000000E+00  0.00000000E+00  0.00000000E+00  0.00000000E+00
  0.00000000E+00  0.00000000E+00  1.15214365E+00  0.00000000E+00  0.00000000E+00
  0.00000000E+00  0.00000000E+00  0.00000000E+00  0.00000000E+00  0.00000000E+00
  0.00000000E+00 -1.64495991E-01  0.00000000E+00  0.00000000E+00 -7.35648436E-02
  0.00000000E+00  0.00000000E+00 -7.35648436E-02  0.00000000E+00  0.00000000E+00
  0.00000000E+00  0.00000000E+00  0.00000000E+00  0.00000000E+00  0.00000000E+00
  0.00000000E+00  0.00000000E+00  0.00000000E+00  0.00000000E+00  0.00000000E+00
  0.00000000E+00  0.00000000E+00  0.00000000E+00  0.00000000E+00  0.00000000E+00
  0.00000000E+00  0.00000000E+00  0.00000000E+00  0.00000000E+00  0.00000000E+00
  0.00000000E+00  0.00000000E+00  1.81429441E-02  0.00000000E+00  1.06234203E-02
  0.00000000E+00  1.81429441E-02  0.00000000E+00  0.00000000E+00  0.00000000E+00
  0.00000000E+00  2.37546899E-02  0.00000000E+00  2.37546899E-02  0.00000000E+00
  0.00000000E+00  5.44288323E-02  0.00000000E+00  0.00000000E+00  0.00000000E+00
  1.15214365E+00  0.00000000E+00  0.00000000E+00  0.00000000E+00  0.00000000E+00
  0.00000000E+00  0.00000000E+00  0.00000000E+00  0.00000000E+00 -1.64495991E-01
  0.00000000E+00  0.00000000E+00 -7.35648436E-02  0.00000000E+00  0.00000000E+00
 -7.35648436E-02  0.00000000E+00  0.00000000E+00  0.00000000E+00  0.00000000E+00
  0.00000000E+00  0.00000000E+00  0.00000000E+00  0.00000000E+00  0.00000000E+00
  0.00000000E+00  0.00000000E+00  0.00000000E+00  0.00000000E+00  0.00000000E+00
  0.00000000E+00  0.00000000E+00  5.44288323E-02  0.00000000E+00  2.37546899E-02
  0.00000000E+00  1.81429441E-02  0.00000000E+00  0.00000000E+00  0.00000000E+00
  0.00000000E+00  0.00000000E+00  0.00000000E+00  2.37546899E-02  0.00000000E+00
  1.06234203E-02  0.00000000E+00  0.00000000E+00  0.00000000E+00  0.00000000E+00
  1.81429441E-02  0.00000000E+00  0.00000000E+00  0.00000000E+00  0.00000000E+00
  1.15214365E+00  0.00000000E+00  0.00000000E+00  0.00000000E+00  0.00000000E+00
  0.00000000E+00  0.00000000E+00  0.00000000E+00  0.00000000E+00 -1.64495991E-01
  0.00000000E+00  0.00000000E+00 -7.35648436E-02  0.00000000E+00  0.00000000E+00
 -7.35648436E-02  0.00000000E+00  0.00000000E+00  0.00000000E+00  0.00000000E+00
  0.00000000E+00  0.00000000E+00  0.00000000E+00  0.00000000E+00  0.00000000E+00
  0.00000000E+00  0.00000000E+00  0.00000000E+00  0.00000000E+00  0.00000000E+00
  0.00000000E+00  0.00000000E+00  0.00000000E+00  0.00000000E+00  1.81429441E-02
  0.00000000E+00  2.37546899E-02  0.00000000E+00  5.44288323E-02  0.00000000E+00
  0.00000000E+00  0.00000000E+00  0.00000000E+00  0.00000000E+00  0.00000000E+00
  1.06234203E-02  0.00000000E+00  2.37546899E-02  0.00000000E+00  0.00000000E+00
  0.00000000E+00  0.00000000E+00  1.81429441E-02  0.00000000E+00  1.50327360E+00
  0.00000000E+00  0.00000000E+00  0.00000000E+00 -7.07569266E-01 -7.07569266E-01
 -7.07569266E-01  0.00000000E+00  0.00000000E+00  0.00000000E+00  0.00000000E+00
  0.00000000E+00  0.00000000E+00  0.00000000E+00  0.00000000E+00  0.00000000E+00
  0.00000000E+00  0.00000000E+00  0.00000000E+00  0.00000000E+00 -2.97420090E-02
  0.00000000E+00 -1.74151372E-02  0.00000000E+00 -2.97420090E-02  0.00000000E+00
  0.00000000E+00  0.00000000E+00  0.00000000E+00 -1.74151372E-02  0.00000000E+00
 -1.74151372E-02  0.00000000E+00  0.00000000E+00 -2.97420090E-02  0.00000000E+00
  0.00000000E+00  0.00000000E+00  0.00000000E+00  0.00000000E+00  0.00000000E+00
  0.00000000E+00  0.00000000E+00  0.00000000E+00  0.00000000E+00  0.00000000E+00
  0.00000000E+00  0.00000000E+00  0.00000000E+00  0.00000000E+00  0.00000000E+00
  0.00000000E+00  0.00000000E+00  0.00000000E+00  0.00000000E+00  0.00000000E+00
  0.00000000E+00  0.00000000E+00  0.00000000E+00  0.00000000E+00  0.00000000E+00
  0.00000000E+00  0.00000000E+00  1.25837529E+00  0.00000000E+00  0.00000000E+00
  0.00000000E+00  0.00000000E+00  0.00000000E+00  0.00000000E+00  0.00000000E+00
  0.00000000E+00  0.00000000E+00  0.00000000E+00  0.00000000E+00  0.00000000E+00
  0.00000000E+00  0.00000000E+00  0.00000000E+00  0.00000000E+00  0.00000000E+00
  0.00000000E+00 -7.30862908E-02  0.00000000E+00 -1.63425915E-01  0.00000000E+00
  0.00000000E+00  0.00000000E+00  0.00000000E+00 -1.63425915E-01  0.00000000E+00
  0.00000000E+00  0.00000000E+00  0.00000000E+00  0.00000000E+00  0.00000000E+00
  0.00000000E+00  0.00000000E+00  0.00000000E+00  0.00000000E+00  0.00000000E+00
  0.00000000E+00  0.00000000E+00  0.00000000E+00  0.00000000E+00  0.00000000E+00
  0.00000000E+00  0.00000000E+00  0.00000000E+00  0.00000000E+00  0.00000000E+00
  0.00000000E+00  2.23808426E-15  0.00000000E+00  0.00000000E+00  0.00000000E+00
  1.21424451E+00 -8.93197397E-01 -3.21047115E-01  0.00000000E+00  0.00000000E+00
  0.00000000E+00  0.00000000E+00  0.00000000E+00  0.00000000E+00  0.00000000E+00
  0.00000000E+00  0.00000000E+00  0.00000000E+00  0.00000000E+00  0.00000000E+00
  0.00000000E+00  6.36895095E-02  0.00000000E+00  7.05231801E-02  0.00000000E+00
  1.77193009E-01  0.00000000E+00  0.00000000E+00  0.00000000E+00  0.00000000E+00
 -5.18768010E-02  0.00000000E+00 -1.86463791E-02  0.00000000E+00  0.00000000E+00
 -2.40882518E-01  0.00000000E+00  0.00000000E+00  0.00000000E+00  0.00000000E+00
  0.00000000E+00  0.00000000E+00  0.00000000E+00  0.00000000E+00  0.00000000E+00
  0.00000000E+00  0.00000000E+00  0.00000000E+00  0.00000000E+00  0.00000000E+00
  0.00000000E+00  0.00000000E+00  0.00000000E+00  0.00000000E+00  0.00000000E+00
  0.00000000E+00  0.00000000E+00  0.00000000E+00  0.00000000E+00  0.00000000E+00
  0.00000000E+00  0.00000000E+00  0.00000000E+00  0.00000000E+00  0.00000000E+00
  0.00000000E+00  1.25837529E+00  0.00000000E+00  0.00000000E+00  0.00000000E+00
  0.00000000E+00  0.00000000E+00  0.00000000E+00  0.00000000E+00  0.00000000E+00
  0.00000000E+00  0.00000000E+00  0.00000000E+00 -1.63425915E-01  0.00000000E+00
 -1.63425915E-01  0.00000000E+00  0.00000000E+00  0.00000000E+00  0.00000000E+00
  0.00000000E+00  0.00000000E+00 -7.30862908E-02  0.00000000E+00  0.00000000E+00
  0.00000000E+00  0.00000000E+00  0.00000000E+00  0.00000000E+00  0.00000000E+00
  0.00000000E+00  0.00000000E+00  0.00000000E+00  0.00000000E+00  0.00000000E+00
  0.00000000E+00  0.00000000E+00  0.00000000E+00  0.00000000E+00  0.00000000E+00
  0.00000000E+00  0.00000000E+00  0.00000000E+00  0.00000000E+00  0.00000000E+00
  0.00000000E+00  0.00000000E+00  0.00000000E+00  0.00000000E+00  0.00000000E+00
  0.00000000E+00  0.00000000E+00  0.00000000E+00  0.00000000E+00  0.00000000E+00
  0.00000000E+00  1.25837529E+00  0.00000000E+00  0.00000000E+00  0.00000000E+00
  0.00000000E+00  0.00000000E+00  0.00000000E+00  0.00000000E+00  0.00000000E+00
  0.00000000E+00  0.00000000E+00  0.00000000E+00  0.00000000E+00  0.00000000E+00
  0.00000000E+00  0.00000000E+00  0.00000000E+00 -1.63425915E-01  0.00000000E+00
 -7.30862908E-02  0.00000000E+00  0.00000000E+00  0.00000000E+00  0.00000000E+00
 -1.63425915E-01  0.00000000E+00  0.00000000E+00  0.00000000E+00  0.00000000E+00
  0.00000000E+00  0.00000000E+00  0.00000000E+00  0.00000000E+00  0.00000000E+00
  0.00000000E+00  0.00000000E+00  0.00000000E+00  0.00000000E+00  0.00000000E+00
  0.00000000E+00  0.00000000E+00  0.00000000E+00  0.00000000E+00  0.00000000E+00
  0.00000000E+00  0.00000000E+00  0.00000000E+00  0.00000000E+00  2.50398048E-15
  0.00000000E+00  0.00000000E+00  0.00000000E+00 -3.30331119E-01 -8.86401034E-01
  1.21673215E+00  0.00000000E+00  0.00000000E+00  0.00000000E+00  0.00000000E+00
  0.00000000E+00  0.00000000E+00  0.00000000E+00  0.00000000E+00  0.00000000E+00
  0.00000000E+00  0.00000000E+00  0.00000000E+00  0.00000000E+00 -2.41376018E-01
  0.00000000E+00 -1.91855930E-02  0.00000000E+00  1.75844742E-01  0.00000000E+00
  0.00000000E+00  0.00000000E+00  0.00000000E+00 -5.14820690E-02  0.00000000E+00
  7.06676620E-02  0.00000000E+00  0.00000000E+00  6.55312757E-02  0.00000000E+00
  0.00000000E+00  0.00000000E+00  0.00000000E+00  0.00000000E+00  0.00000000E+00
  0.00000000E+00  0.00000000E+00  0.00000000E+00  0.00000000E+00  0.00000000E+00
  0.00000000E+00  0.00000000E+00  0.00000000E+00  0.00000000E+00  0.00000000E+00
  0.00000000E+00  0.00000000E+00  0.00000000E+00  0.00000000E+00  0.00000000E+00
  0.00000000E+00  1.59968058E+00  0.00000000E+00  0.00000000E+00  0.00000000E+00
  0.00000000E+00  0.00000000E+00  0.00000000E+00  0.00000000E+00  0.00000000E+00
 -1.20021144E+00  0.00000000E+00  0.00000000E+00 -5.36750873E-01  0.00000000E+00
  0.00000000E+00 -5.36750873E-01  0.00000000E+00  0.00000000E+00  0.00000000E+00
  0.00000000E+00  0.00000000E+00  0.00000000E+00  0.00000000E+00  0.00000000E+00
  0.00000000E+00  0.00000000E+00  0.00000000E+00  0.00000000E+00  0.00000000E+00
  0.00000000E+00  0.00000000E+00  0.00000000E+00  0.00000000E+00  0.00000000E+00
  0.00000000E+00  0.00000000E+00  0.00000000E+00  0.00000000E+00  0.00000000E+00
  0.00000000E+00 -2.14826365E-02  0.00000000E+00 -1.25789439E-02  0.00000000E+00
 -2.14826365E-02  0.00000000E+00  0.00000000E+00  0.00000000E+00  0.00000000E+00
 -2.81273736E-02  0.00000000E+00 -2.81273736E-02  0.00000000E+00  0.00000000E+00
 -6.44479094E-02  0.00000000E+00  0.00000000E+00  1.59968058E+00  0.00000000E+00
  0.00000000E+00  0.00000000E+00  0.00000000E+00  0.00000000E+00  0.00000000E+00
  0.00000000E+00  0.00000000E+00 -1.20021144E+00  0.00000000E+00  0.00000000E+00
 -5.36750873E-01  0.00000000E+00  0.00000000E+00 -5.36750873E-01  0.00000000E+00
  0.00000000E+00  0.00000000E+00  0.00000000E+00  0.00000000E+00  0.00000000E+00
  0.00000000E+00  0.00000000E+00  0.00000000E+00  0.00000000E+00  0.00000000E+00
  0.00000000E+00  0.00000000E+00  0.00000000E+00  0.00000000E+00  0.00000000E+00
  0.00000000E+00  0.00000000E+00 -2.14826365E-02  0.00000000E+00 -2.81273736E-02
  0.00000000E+00 -6.44479094E-02  0.00000000E+00  0.00000000E+00  0.00000000E+00
  0.00000000E+00  0.00000000E+00  0.00000000E+00 -1.25789439E-02  0.00000000E+00
 -2.81273736E-02  0.00000000E+00  0.00000000E+00  0.00000000E+00  0.00000000E+00
 -2.14826365E-02  0.00000000E+00  0.00000000E+00  0.00000000E+00  0.00000000E+00
  1.59968058E+00  0.00000000E+00  0.00000000E+00  0.00000000E+00  0.00000000E+00
  0.00000000E+00  0.00000000E+00  0.00000000E+00  0.00000000E+00 -1.20021144E+00
  0.00000000E+00  0.00000000E+00 -5.36750873E-01  0.00000000E+00  0.00000000E+00
 -5.36750873E-01  0.00000000E+00  0.00000000E+00  0.00000000E+00  0.00000000E+00
  0.00000000E+00  0.00000000E+00  0.00000000E+00  0.00000000E+00  0.00000000E+00
  0.00000000E+00  0.00000000E+00  0.00000000E+00  0.00000000E+00  0.00000000E+00
  0.00000000E+00  0.00000000E+00 -6.44479094E-02  0.00000000E+00 -2.81273736E-02
  0.00000000E+00 -2.14826365E-02  0.00000000E+00  0.00000000E+00  0.00000000E+00
  0.00000000E+00  0.00000000E+00  0.00000000E+00 -2.81273736E-02  0.00000000E+00
 -1.25789439E-02  0.00000000E+00  0.00000000E+00  0.00000000E+00  0.00000000E+00
 -2.14826365E-02  0.00000000E+00  0.00000000E+00 -4.96308859E-01  0.00000000E+00
  0.00000000E+00  0.00000000E+00  9.16929871E-01  9.16929871E-01  9.16929871E-01
  0.00000000E+00  0.00000000E+00  0.00000000E+00  0.00000000E+00  0.00000000E+00
  0.00000000E+00  0.00000000E+00  0.00000000E+00  0.00000000E+00  0.00000000E+00
  0.00000000E+00  0.00000000E+00  0.00000000E+00 -6.11814633E-01  0.00000000E+00
 -3.58241967E-01  0.00000000E+00 -6.11814633E-01  0.00000000E+00  0.00000000E+00
  0.00000000E+00  0.00000000E+00 -3.58241967E-01  0.00000000E+00 -3.58241967E-01
  0.00000000E+00  0.00000000E+00 -6.11814633E-01  0.00000000E+00  0.00000000E+00
  0.00000000E+00  0.00000000E+00  0.00000000E+00  0.00000000E+00  0.00000000E+00
  0.00000000E+00  0.00000000E+00  0.00000000E+00  0.00000000E+00  0.00000000E+00
  0.00000000E+00  0.00000000E+00  0.00000000E+00  0.00000000E+00  0.00000000E+00
  0.00000000E+00  0.00000000E+00  0.00000000E+00  0.00000000E+00  0.00000000E+00
  0.00000000E+00  1.33349015E-15  0.00000000E+00  0.00000000E+00  0.00000000E+00
  0.00000000E+00  0.00000000E+00  0.00000000E+00  0.00000000E+00  0.00000000E+00
 -1.10022862E+00  0.00000000E+00  0.00000000E+00  7.03437422E-02  0.00000000E+00
  0.00000000E+00  1.40576785E+00  0.00000000E+00  0.00000000E+00  0.00000000E+00
  0.00000000E+00  0.00000000E+00  0.00000000E+00  0.00000000E+00  0.00000000E+00
  0.00000000E+00  0.00000000E+00  0.00000000E+00  0.00000000E+00  0.00000000E+00
  0.00000000E+00  0.00000000E+00  0.00000000E+00  0.00000000E+00  0.00000000E+00
 -2.88071821E-01  0.00000000E+00 -1.22579254E-01  0.00000000E+00  3.02486755E-01
  0.00000000E+00  0.00000000E+00  0.00000000E+00  0.00000000E+00  0.00000000E+00
  0.00000000E+00 -8.85590538E-02  0.00000000E+00  5.65712324E-02  0.00000000E+00
  0.00000000E+00  0.00000000E+00  0.00000000E+00 -1.44149334E-02  0.00000000E+00
  0.00000000E+00  0.00000000E+00  0.00000000E+00 -2.92310887E-15  0.00000000E+00
  0.00000000E+00  0.00000000E+00  0.00000000E+00  0.00000000E+00  0.00000000E+00
  0.00000000E+00  0.00000000E+00  1.31494570E+00  0.00000000E+00  0.00000000E+00
 -1.12064010E+00  0.00000000E+00  0.00000000E+00 -6.43544689E-01  0.00000000E+00
  0.00000000E+00  0.00000000E+00  0.00000000E+00  0.00000000E+00  0.00000000E+00
  0.00000000E+00  0.00000000E+00  0.00000000E+00  0.00000000E+00  0.00000000E+00
  0.00000000E+00  0.00000000E+00  0.00000000E+00  0.00000000E+00  0.00000000E+00
 -3.61519097E-01  0.00000000E+00  7.44319584E-03  0.00000000E+00  1.31876035E-01
  0.00000000E+00  0.00000000E+00  0.00000000E+00  0.00000000E+00  0.00000000E+00
  0.00000000E+00  7.14467387E-02  0.00000000E+00  1.05841954E-01  0.00000000E+00
  0.00000000E+00  0.00000000E+00  0.00000000E+00  2.29643062E-01  0.00000000E+00
  0.00000000E+00  0.00000000E+00  0.00000000E+00 -7.83497429E-16  0.00000000E+00
  0.00000000E+00  0.00000000E+00  0.00000000E+00  0.00000000E+00  0.00000000E+00
  0.00000000E+00  0.00000000E+00 -7.71007471E-01  0.00000000E+00  0.00000000E+00
  1.47003347E+00  0.00000000E+00  0.00000000E+00 -4.35618404E-01  0.00000000E+00
  0.00000000E+00  0.00000000E+00  0.00000000E+00  0.00000000E+00  0.00000000E+00
  0.00000000E+00  0.00000000E+00  0.00000000E+00  0.00000000E+00  0.00000000E+00
  0.00000000E+00  0.00000000E+00  0.00000000E+00  0.00000000E+00  0.00000000E+00
  0.00000000E+00  0.00000000E+00  8.92675036E-02  0.00000000E+00  1.04695756E-01
  0.00000000E+00  2.11973714E-01  0.00000000E+00  0.00000000E+00  0.00000000E+00
  0.00000000E+00  0.00000000E+00  0.00000000E+00 -6.20595489E-02  0.00000000E+00
 -1.50952212E-01  0.00000000E+00  0.00000000E+00  0.00000000E+00  0.00000000E+00
 -3.01241218E-01  0.00000000E+00  0.00000000E+00  9.68742469E-15  0.00000000E+00
  0.00000000E+00  0.00000000E+00  0.00000000E+00  0.00000000E+00  0.00000000E+00
  0.00000000E+00  0.00000000E+00  1.30094532E+00  0.00000000E+00  0.00000000E+00
 -1.16317029E+00  0.00000000E+00  0.00000000E+00 -5.82231017E-01  0.00000000E+00
  0.00000000E+00  0.00000000E+00  0.00000000E+00  0.00000000E+00  0.00000000E+00
  0.00000000E+00  0.00000000E+00  0.00000000E+00  0.00000000E+00  0.00000000E+00
  0.00000000E+00  0.00000000E+00  0.00000000E+00  0.00000000E+00  0.00000000E+00
  0.00000000E+00  0.00000000E+00  0.00000000E+00  0.00000000E+00  0.00000000E+00
  0.00000000E+00  0.00000000E+00  0.00000000E+00  1.19311556E-01  0.00000000E+00
  1.04715042E-01  0.00000000E+00  2.38358405E-01  0.00000000E+00  0.00000000E+00
  0.00000000E+00  0.00000000E+00  5.77636540E-05  0.00000000E+00  7.79922206E-02
  0.00000000E+00  0.00000000E+00 -3.57669961E-01  0.00000000E+00  0.00000000E+00
  0.00000000E+00  3.68143012E-15  0.00000000E+00  0.00000000E+00  0.00000000E+00
  0.00000000E+00  0.00000000E+00  0.00000000E+00  0.00000000E+00  0.00000000E+00
 -2.75451163E-01  0.00000000E+00  0.00000000E+00 -9.53998126E-01  0.00000000E+00
  0.00000000E+00  1.32355464E+00  0.00000000E+00  0.00000000E+00  0.00000000E+00
  0.00000000E+00  0.00000000E+00  0.00000000E+00  0.00000000E+00  0.00000000E+00
  0.00000000E+00  0.00000000E+00  0.00000000E+00  0.00000000E+00  0.00000000E+00
  0.00000000E+00  0.00000000E+00  0.00000000E+00  7.57300132E-02  0.00000000E+00
 -1.61032523E-01  0.00000000E+00 -2.71224580E-01  0.00000000E+00  0.00000000E+00
  0.00000000E+00  0.00000000E+00  0.00000000E+00  0.00000000E+00  1.44506880E-01
  0.00000000E+00 -2.21714776E-02  0.00000000E+00  0.00000000E+00  0.00000000E+00
  0.00000000E+00  1.95494567E-01  0.00000000E+00  0.00000000E+00  0.00000000E+00
 -4.51695197E-15  0.00000000E+00  0.00000000E+00  0.00000000E+00  0.00000000E+00
  0.00000000E+00  0.00000000E+00  0.00000000E+00  0.00000000E+00 -3.35405445E-01
  0.00000000E+00  0.00000000E+00 -9.01654886E-01  0.00000000E+00  0.00000000E+00
  1.35164851E+00  0.00000000E+00  0.00000000E+00  0.00000000E+00  0.00000000E+00
  0.00000000E+00  0.00000000E+00  0.00000000E+00  0.00000000E+00  0.00000000E+00
  0.00000000E+00  0.00000000E+00  0.00000000E+00  0.00000000E+00  0.00000000E+00
  0.00000000E+00  0.00000000E+00  0.00000000E+00  0.00000000E+00  0.00000000E+00
  0.00000000E+00  0.00000000E+00  0.00000000E+00  0.00000000E+00  0.00000000E+00
 -2.76981613E-01  0.00000000E+00 -2.69972878E-02  0.00000000E+00  1.84768320E-01
  0.00000000E+00  0.00000000E+00  0.00000000E+00  0.00000000E+00 -1.61204440E-01
  0.00000000E+00  1.41081849E-01  0.00000000E+00  0.00000000E+00  9.22132930E-02
  0.00000000E+00  0.00000000E+00  0.00000000E+00  0.00000000E+00  0.00000000E+00
  0.00000000E+00  0.00000000E+00  0.00000000E+00  0.00000000E+00  0.00000000E+00
  0.00000000E+00  0.00000000E+00  0.00000000E+00  0.00000000E+00  0.00000000E+00
  0.00000000E+00  0.00000000E+00  0.00000000E+00  0.00000000E+00  1.34348634E+00
  0.00000000E+00  0.00000000E+00  0.00000000E+00  0.00000000E+00  0.00000000E+00
  0.00000000E+00  0.00000000E+00  0.00000000E+00  0.00000000E+00  0.00000000E+00
  0.00000000E+00  0.00000000E+00  0.00000000E+00  0.00000000E+00  0.00000000E+00
  0.00000000E+00  0.00000000E+00  0.00000000E+00  0.00000000E+00  0.00000000E+00
  0.00000000E+00  0.00000000E+00 -1.80232054E-01  0.00000000E+00 -1.80232054E-01
  0.00000000E+00  0.00000000E+00  0.00000000E+00  0.00000000E+00  0.00000000E+00
  0.00000000E+00 -1.80232054E-01  0.00000000E+00  0.00000000E+00  0.00000000E+00
  0.00000000E+00  0.00000000E+00  0.00000000E+00  0.00000000E+00  0.00000000E+00
  0.00000000E+00  0.00000000E+00  0.00000000E+00  0.00000000E+00  0.00000000E+00
  1.24614481E+00  0.00000000E+00  0.00000000E+00  0.00000000E+00  0.00000000E+00
  0.00000000E+00  0.00000000E+00  0.00000000E+00  0.00000000E+00  0.00000000E+00
  0.00000000E+00  0.00000000E+00 -8.48557817E-01  0.00000000E+00 -8.48557817E-01
  0.00000000E+00  0.00000000E+00  0.00000000E+00  0.00000000E+00  0.00000000E+00
  0.00000000E+00 -3.79486592E-01  0.00000000E+00  0.00000000E+00  0.00000000E+00
  0.00000000E+00  0.00000000E+00  0.00000000E+00  0.00000000E+00  0.00000000E+00
  0.00000000E+00  0.00000000E+00  0.00000000E+00  0.00000000E+00  0.00000000E+00
  0.00000000E+00  0.00000000E+00  0.00000000E+00  0.00000000E+00  0.00000000E+00
  0.00000000E+00  0.00000000E+00  0.00000000E+00  0.00000000E+00  0.00000000E+00
  0.00000000E+00  0.00000000E+00  0.00000000E+00  0.00000000E+00  0.00000000E+00
  0.00000000E+00  0.00000000E+00  0.00000000E+00  0.00000000E+00  1.24614481E+00
  0.00000000E+00  0.00000000E+00  0.00000000E+00  0.00000000E+00  0.00000000E+00
  0.00000000E+00  0.00000000E+00  0.00000000E+00  0.00000000E+00  0.00000000E+00
  0.00000000E+00  0.00000000E+00  0.00000000E+00  0.00000000E+00  0.00000000E+00
  0.00000000E+00  0.00000000E+00  0.00000000E+00 -3.79486592E-01  0.00000000E+00
 -8.48557817E-01  0.00000000E+00  0.00000000E+00  0.00000000E+00  0.00000000E+00
 -8.48557817E-01  0.00000000E+00  0.00000000E+00  0.00000000E+00  0.00000000E+00
  0.00000000E+00  0.00000000E+00  0.00000000E+00  0.00000000E+00  0.00000000E+00
  0.00000000E+00  0.00000000E+00  0.00000000E+00  0.00000000E+00  0.00000000E+00
  0.00000000E+00  0.00000000E+00  0.00000000E+00  0.00000000E+00  0.00000000E+00
  0.00000000E+00  0.00000000E+00  0.00000000E+00  0.00000000E+00  0.00000000E+00
  0.00000000E+00  0.00000000E+00  0.00000000E+00  0.00000000E+00  0.00000000E+00
  0.00000000E+00  1.24614481E+00  0.00000000E+00  0.00000000E+00  0.00000000E+00
  0.00000000E+00  0.00000000E+00  0.00000000E+00  0.00000000E+00  0.00000000E+00
  0.00000000E+00  0.00000000E+00  0.00000000E+00  0.00000000E+00  0.00000000E+00
  0.00000000E+00  0.00000000E+00  0.00000000E+00 -8.48557817E-01  0.00000000E+00
 -3.79486592E-01  0.00000000E+00  0.00000000E+00  0.00000000E+00  0.00000000E+00
 -8.48557817E-01  0.00000000E+00  0.00000000E+00  0.00000000E+00  0.00000000E+00
  0.00000000E+00  0.00000000E+00  0.00000000E+00  0.00000000E+00  0.00000000E+00
  0.00000000E+00  0.00000000E+00  0.00000000E+00  0.00000000E+00  0.00000000E+00
  0.00000000E+00  0.00000000E+00  0.00000000E+00  0.00000000E+00  0.00000000E+00