[Molden Format]
[Title]
 Molden file created by orca_2mkl for BaseName=li2

[Atoms] AU
Li   1   3          0.0000000000         0.0000000000         0.0000000000
Li   2   3          5.2912331750         0.0000000000         0.0000000000
[GTO]
  1 0
s   9 1.0
     6601.0000000000         0.0612241946
      989.7000000000         0.1148618942
      225.7000000000         0.1967234157
       64.2900000000         0.3114374635
       21.1800000000         0.4447734064
        7.7240000000         0.5403225103
        3.0030000000         0.5131784250
        1.2120000000         0.3251490991
        0.4930000000         0.0827847850
s   9 1.0
     6601.0000000000        -0.0343687023
      989.7000000000        -0.0653279984
      225.7000000000        -0.1124994002
       64.2900000000        -0.1787713180
       21.1800000000        -0.2605775722
        7.7240000000        -0.3272940839
        3.0030000000        -0.3411547325
        1.2120000000        -0.2827826506
        0.4930000000        -0.1857506683
s   1 1.0
        0.0951500000         0.1221002875
s   1 1.0
        0.0479100000         0.0729843459
s   1 1.0
        0.0222000000         0.0409897079
p   3 1.0
        6.2500000000         0.5138103395
        1.3700000000         0.4393668856
        0.3672000000         0.3470053746
p   1 1.0
        0.1192000000         0.0998355942
p   1 1.0
        0.0447400000         0.0293298649
p   1 1.0
        0.0179500000         0.0093652776
d   1 1.0
        0.3440000000         0.4405014660
d   1 1.0
        0.1530000000         0.1067038495
d   1 1.0
        0.0680000000         0.0258143195
f   1 1.0
        0.2460000000         0.2429987671
f   1 1.0
        0.1292000000         0.0570611782
g   1 1.0
        0.2380000000         0.1270738182

  2 0
s   9 1.0
     6601.0000000000         0.0612241946
      989.7000000000         0.1148618942
      225.7000000000         0.1967234157
       64.2900000000         0.3114374635
       21.1800000000         0.4447734064
        7.7240000000         0.5403225103
        3.0030000000         0.5131784250
        1.2120000000         0.3251490991
        0.4930000000         0.0827847850
s   9 1.0
     6601.0000000000        -0.0343687023
      989.7000000000        -0.0653279984
      225.7000000000        -0.1124994002
       64.2900000000        -0.1787713180
       21.1800000000        -0.2605775722
        7.7240000000        -0.3272940839
        3.0030000000        -0.3411547325
        1.2120000000        -0.2827826506
        0.4930000000        -0.1857506683
s   1 1.0
        0.0951500000         0.1221002875
s   1 1.0
        0.0479100000         0.0729843459
s   1 1.0
        0.0222000000         0.0409897079
p   3 1.0
        6.2500000000         0.5138103395
        1.3700000000         0.4393668856
        0.3672000000         0.3470053746
p   1 1.0
        0.1192000000         0.0998355942
p   1 1.0
        0.0447400000         0.0293298649
p   1 1.0
        0.0179500000         0.0093652776
d   1 1.0
        0.3440000000         0.4405014660
d   1 1.0
        0.1530000000         0.1067038495
d   1 1.0
        0.0680000000         0.0258143195
f   1 1.0
        0.2460000000         0.2429987671
f   1 1.0
        0.1292000000         0.0570611782
g   1 1.0
        0.2380000000         0.1270738182

[5D]
[9G]
[MO]
 Sym=     1a
 Ene= -2.67744644270260E+00
 Spin= Alpha
 Occup= 1.000000
  1      -0.708793275270
  2      -0.003920059471
  3      -0.003230644743
  4       0.000471982766
  5      -0.000419213156
  6       0.004128529257
  7      -0.000000000000
  8      -0.000000000000
  9      -0.001727317786
 10       0.000000000000
 11       0.000000000000
 12      -0.001034967794
 13      -0.000000000000
 14       0.000000000000
 15      -0.000063734572
 16       0.000000000000
 17      -0.000000000000
 18      -0.000296787277
 19      -0.000000000000
 20       0.000000000000
 21       0.000514050643
 22      -0.000000000000
 23       0.000523669913
 24       0.000000000000
 25      -0.000000000000
 26      -0.000907022896
 27       0.000000000000
 28       0.000696578435
 29       0.000000000000
 30       0.000000000000
 31      -0.001206509241
 32       0.000000000000
 33      -0.000000000000
 34      -0.000121500414
 35      -0.000000000000
 36       0.000000000000
 37      -0.000000000000
 38      -0.000156856360
 39      -0.000000000000
 40      -0.000000000000
 41       0.000912430397
 42      -0.000000000000
 43       0.000000000000
 44       0.000000000000
 45       0.001177942577
 46       0.000000000000
 47      -0.000224123042
 48      -0.000000000000
 49       0.000000000000
 50       0.000334102905
 51       0.000000000000
 52      -0.000000000000
 53      -0.000000000000
 54       0.000441976600
 55      -0.000000000000
 56      -0.708793275333
 57      -0.003920059472
 58      -0.003230644745
 59       0.000471982768
 60      -0.000419213157
 61      -0.004128529257
 62      -0.000000000000
 63       0.000000000000
 64       0.001727317786
 65       0.000000000000
 66      -0.000000000000
 67       0.001034967793
 68      -0.000000000000
 69      -0.000000000000
 70       0.000063734572
 71       0.000000000000
 72       0.000000000000
 73      -0.000296787277
 74      -0.000000000000
 75      -0.000000000000
 76       0.000514050644
 77       0.000000000000
 78       0.000523669914
 79       0.000000000000
 80       0.000000000000
 81      -0.000907022897
 82      -0.000000000000
 83       0.000696578435
 84       0.000000000000
 85      -0.000000000000
 86      -0.001206509240
 87       0.000000000000
 88       0.000000000000
 89       0.000121500414
 90      -0.000000000000
 91       0.000000000000
 92      -0.000000000000
 93       0.000156856360
 94      -0.000000000000
 95       0.000000000000
 96      -0.000912430397
 97       0.000000000000
 98      -0.000000000000
 99       0.000000000000
100      -0.001177942577
101       0.000000000000
102      -0.000224123042
103      -0.000000000000
104      -0.000000000000
105       0.000334102905
106      -0.000000000000
107      -0.000000000000
108      -0.000000000000
109       0.000441976600
110      -0.000000000000
 Sym=     1a
 Ene= -2.67713143175513E+00
 Spin= Alpha
 Occup= 1.000000
  1       0.710937554839
  2       0.006365861336
  3       0.009789555477
  4       0.013436950610
  5       0.000051217261
  6      -0.004584126946
  7      -0.000000000000
  8       0.000000000000
  9       0.010614206541
 10       0.000000000000
 11       0.000000000000
 12       0.007714927948
 13       0.000000000000
 14       0.000000000000
 15      -0.000509054760
 16      -0.000000000000
 17      -0.000000000000
 18       0.000140456536
 19      -0.000000000000
 20       0.000000000000
 21      -0.000243277857
 22       0.000000000000
 23      -0.001880276421
 24       0.000000000000
 25      -0.000000000000
 26       0.003256734293
 27      -0.000000000000
 28      -0.001720535499
 29       0.000000000000
 30       0.000000000000
 31       0.002980054901
 32       0.000000000000
 33       0.000000000000
 34      -0.000226631338
 35       0.000000000000
 36      -0.000000000000
 37      -0.000000000000
 38      -0.000292579799
 39       0.000000000000
 40      -0.000000000000
 41      -0.000903553767
 42      -0.000000000000
 43       0.000000000000
 44       0.000000000000
 45      -0.001166482897
 46      -0.000000000000
 47       0.000087004304
 48      -0.000000000000
 49      -0.000000000000
 50      -0.000129698358
 51      -0.000000000000
 52      -0.000000000000
 53      -0.000000000000
 54      -0.000171574801
 55      -0.000000000000
 56      -0.710937554777
 57      -0.006365861336
 58      -0.009789555477
 59      -0.013436950610
 60      -0.000051217261
 61      -0.004584126946
 62       0.000000000000
 63       0.000000000000
 64       0.010614206541
 65      -0.000000000000
 66      -0.000000000000
 67       0.007714927947
 68      -0.000000000000
 69      -0.000000000000
 70      -0.000509054760
 71       0.000000000000
 72      -0.000000000000
 73      -0.000140456536
 74       0.000000000000
 75      -0.000000000000
 76       0.000243277857
 77      -0.000000000000
 78       0.001880276421
 79      -0.000000000000
 80       0.000000000000
 81      -0.003256734293
 82       0.000000000000
 83       0.001720535499
 84       0.000000000000
 85      -0.000000000000
 86      -0.002980054900
 87       0.000000000000
 88      -0.000000000000
 89      -0.000226631338
 90       0.000000000000
 91       0.000000000000
 92      -0.000000000000
 93      -0.000292579799
 94       0.000000000000
 95       0.000000000000
 96      -0.000903553767
 97      -0.000000000000
 98      -0.000000000000
 99       0.000000000000
100      -0.001166482897
101       0.000000000000
102      -0.000087004304
103       0.000000000000
104       0.000000000000
105       0.000129698358
106      -0.000000000000
107      -0.000000000000
108       0.000000000000
109       0.000171574801
110      -0.000000000000
 Sym=     1a
 Ene= -4.30830367807282E-01
 Spin= Alpha
 Occup= 1.000000
  1      -0.001760215269
  2       0.208858984504
  3       0.275509791937
  4       0.212600975909
  5       0.016640029557
  6       0.051433612541
  7       0.000000000000
  8       0.000000000000
  9       0.173579600921
 10      -0.000000000000
 11       0.000000000000
 12       0.082811066064
 13      -0.000000000000
 14       0.000000000000
 15      -0.007096390912
 16       0.000000000000
 17      -0.000000000000
 18      -0.002886248505
 19       0.000000000000
 20      -0.000000000000
 21       0.004999129053
 22       0.000000000000
 23      -0.012119452261
 24      -0.000000000000
 25       0.000000000000
 26       0.020991507076
 27      -0.000000000000
 28      -0.008890469822
 29       0.000000000000
 30      -0.000000000000
 31       0.015398745435
 32      -0.000000000000
 33       0.000000000000
 34      -0.002501671865
 35       0.000000000000
 36      -0.000000000000
 37      -0.000000000000
 38      -0.003229644491
 39      -0.000000000000
 40      -0.000000000000
 41      -0.000102591624
 42       0.000000000000
 43       0.000000000000
 44      -0.000000000000
 45      -0.000132445217
 46       0.000000000000
 47       0.000125326649
 48      -0.000000000000
 49       0.000000000000
 50      -0.000186825943
 51       0.000000000000
 52      -0.000000000000
 53       0.000000000000
 54      -0.000247147489
 55       0.000000000000
 56      -0.001760215269
 57       0.208858984504
 58       0.275509791936
 59       0.212600975910
 60       0.016640029555
 61      -0.051433612541
 62       0.000000000000
 63       0.000000000000
 64      -0.173579600921
 65       0.000000000000
 66      -0.000000000000
 67      -0.082811066065
 68       0.000000000000
 69      -0.000000000000
 70       0.007096390913
 71      -0.000000000000
 72       0.000000000000
 73      -0.002886248505
 74      -0.000000000000
 75      -0.000000000000
 76       0.004999129053
 77       0.000000000000
 78      -0.012119452261
 79       0.000000000000
 80       0.000000000000
 81       0.020991507076
 82      -0.000000000000
 83      -0.008890469822
 84       0.000000000000
 85      -0.000000000000
 86       0.015398745435
 87      -0.000000000000
 88      -0.000000000000
 89       0.002501671865
 90       0.000000000000
 91       0.000000000000
 92      -0.000000000000
 93       0.003229644491
 94       0.000000000000
 95       0.000000000000
 96       0.000102591624
 97      -0.000000000000
 98      -0.000000000000
 99      -0.000000000000
100       0.000132445217
101      -0.000000000000
102       0.000125326649
103      -0.000000000000
104      -0.000000000000
105      -0.000186825943
106       0.000000000000
107      -0.000000000000
108      -0.000000000000
109      -0.000247147489
110       0.000000000000
 Sym=     1a
 Ene= -1.32189285786825E-01
 Spin= Alpha
 Occup= 0.000000
  1      -0.001526100879
  2      -0.160083728628
  3      -0.112630208196
  4      -0.469960272369
  5      -0.354808287812
  6       0.021274294483
  7       0.000000000000
  8       0.000000000000
  9       0.061219364495
 10       0.000000000000
 11      -0.000000000000
 12       0.046176933374
 13      -0.000000000000
 14      -0.000000000000
 15       0.088088244974
 16       0.000000000000
 17       0.000000000000
 18      -0.000049379045
 19      -0.000000000000
 20      -0.000000000000
 21       0.000085527015
 22      -0.000000000000
 23      -0.001256036034
 24       0.000000000000
 25       0.000000000000
 26       0.002175518227
 27       0.000000000000
 28       0.007594207909
 29      -0.000000000000
 30       0.000000000000
 31      -0.013153553942
 32      -0.000000000000
 33      -0.000000000000
 34      -0.000415926053
 35      -0.000000000000
 36       0.000000000000
 37       0.000000000000
 38      -0.000536958225
 39      -0.000000000000
 40       0.000000000000
 41       0.000894742339
 42       0.000000000000
 43      -0.000000000000
 44       0.000000000000
 45       0.001155107392
 46       0.000000000000
 47      -0.000007360139
 48       0.000000000000
 49      -0.000000000000
 50       0.000010971849
 51       0.000000000000
 52       0.000000000000
 53       0.000000000000
 54       0.000014514391
 55       0.000000000000
 56       0.001526100878
 57       0.160083728628
 58       0.112630208192
 59       0.469960272373
 60       0.354808287810
 61       0.021274294483
 62      -0.000000000000
 63       0.000000000000
 64       0.061219364496
 65      -0.000000000000
 66       0.000000000000
 67       0.046176933373
 68      -0.000000000000
 69       0.000000000000
 70       0.088088244975
 71      -0.000000000000
 72      -0.000000000000
 73       0.000049379045
 74      -0.000000000000
 75       0.000000000000
 76      -0.000085527015
 77       0.000000000000
 78       0.001256036034
 79      -0.000000000000
 80       0.000000000000
 81      -0.002175518227
 82      -0.000000000000
 83      -0.007594207910
 84      -0.000000000000
 85       0.000000000000
 86       0.013153553943
 87      -0.000000000000
 88       0.000000000000
 89      -0.000415926053
 90       0.000000000000
 91      -0.000000000000
 92       0.000000000000
 93      -0.000536958225
 94       0.000000000000
 95      -0.000000000000
 96       0.000894742339
 97      -0.000000000000
 98       0.000000000000
 99      -0.000000000000
100       0.001155107393
101      -0.000000000000
102       0.000007360139
103      -0.000000000000
104       0.000000000000
105      -0.000010971849
106      -0.000000000000
107      -0.000000000000
108      -0.000000000000
109      -0.000014514391
110      -0.000000000000
 Sym=     1a
 Ene= -1.24002074656396E-01
 Spin= Alpha
 Occup= 0.000000
  1       0.000000000000
  2       0.000000000000
  3       0.000000000000
  4      -0.000000000000
  5       0.000000000000
  6       0.000000000000
  7      -0.020671453973
  8       0.047908397160
  9      -0.000000000000
 10      -0.062350909647
 11       0.144505178329
 12      -0.000000000000
 13      -0.115404122880
 14       0.267461909553
 15       0.000000000000
 16      -0.060695822275
 17       0.140669328986
 18      -0.000000000000
 19       0.003238075297
 20       0.000000000000
 21      -0.000000000000
 22      -0.001397160590
 23       0.000000000000
 24       0.007424363559
 25      -0.000000000000
 26       0.000000000000
 27      -0.003203454899
 28       0.000000000000
 29       0.035074457134
 30      -0.000000000000
 31      -0.000000000000
 32      -0.015133881934
 33      -0.000755303577
 34       0.000000000000
 35       0.000133047065
 36       0.000975092724
 37      -0.000000000000
 38      -0.000000000000
 39       0.000515289068
 40      -0.003237941432
 41       0.000000000000
 42       0.000570364842
 43       0.004180164412
 44      -0.000000000000
 45       0.000000000000
 46       0.002209013534
 47       0.000000000000
 48      -0.000768214457
 49       0.000000000000
 50       0.000000000000
 51       0.000156255604
 52      -0.000677501469
 53      -0.000000000000
 54       0.000000000000
 55       0.000413413470
 56       0.000000000000
 57      -0.000000000000
 58      -0.000000000000
 59       0.000000000000
 60       0.000000000000
 61       0.000000000000
 62      -0.020671453973
 63       0.047908397160
 64      -0.000000000000
 65      -0.062350909647
 66       0.144505178329
 67      -0.000000000000
 68      -0.115404122880
 69       0.267461909553
 70       0.000000000000
 71      -0.060695822275
 72       0.140669328986
 73      -0.000000000000
 74      -0.003238075297
 75      -0.000000000000
 76       0.000000000000
 77       0.001397160590
 78       0.000000000000
 79      -0.007424363559
 80       0.000000000000
 81      -0.000000000000
 82       0.003203454899
 83      -0.000000000000
 84      -0.035074457134
 85      -0.000000000000
 86       0.000000000000
 87       0.015133881934
 88      -0.000755303577
 89      -0.000000000000
 90       0.000133047065
 91       0.000975092724
 92       0.000000000000
 93      -0.000000000000
 94       0.000515289068
 95      -0.003237941432
 96       0.000000000000
 97       0.000570364842
 98       0.004180164412
 99      -0.000000000000
100       0.000000000000
101       0.002209013534
102       0.000000000000
103       0.000768214457
104      -0.000000000000
105      -0.000000000000
106      -0.000156255604
107       0.000677501469
108       0.000000000000
109      -0.000000000000
110      -0.000413413470
 Sym=     1a
 Ene= -1.24002074656396E-01
 Spin= Alpha
 Occup= 0.000000
  1      -0.000000000000
  2       0.000000000000
  3      -0.000000000000
  4       0.000000000000
  5       0.000000000000
  6      -0.000000000000
  7      -0.047908397160
  8      -0.020671453973
  9      -0.000000000000
 10      -0.144505178329
 11      -0.062350909647
 12       0.000000000000
 13      -0.267461909553
 14      -0.115404122880
 15      -0.000000000000
 16      -0.140669328986
 17      -0.060695822275
 18       0.000000000000
 19      -0.001397160590
 20       0.000000000000
 21       0.000000000000
 22      -0.003238075297
 23       0.000000000000
 24      -0.003203454899
 25      -0.000000000000
 26      -0.000000000000
 27      -0.007424363559
 28      -0.000000000000
 29      -0.015133881934
 30       0.000000000000
 31       0.000000000000
 32      -0.035074457134
 33       0.000325897422
 34       0.000000000000
 35       0.000308351394
 36      -0.000420731762
 37      -0.000000000000
 38       0.000000000000
 39       0.001194239813
 40       0.001397102830
 41      -0.000000000000
 42       0.001321884053
 43      -0.001803651998
 44       0.000000000000
 45      -0.000000000000
 46       0.005119634926
 47      -0.000000000000
 48       0.000331468192
 49       0.000000000000
 50      -0.000000000000
 51       0.000362139768
 52       0.000292327468
 53       0.000000000000
 54       0.000000000000
 55       0.000958131766
 56       0.000000000000
 57       0.000000000000
 58       0.000000000000
 59      -0.000000000000
 60       0.000000000000
 61       0.000000000000
 62      -0.047908397160
 63      -0.020671453973
 64       0.000000000000
 65      -0.144505178329
 66      -0.062350909647
 67       0.000000000000
 68      -0.267461909553
 69      -0.115404122880
 70       0.000000000000
 71      -0.140669328986
 72      -0.060695822276
 73       0.000000000000
 74       0.001397160590
 75       0.000000000000
 76      -0.000000000000
 77       0.003238075297
 78       0.000000000000
 79       0.003203454899
 80      -0.000000000000
 81       0.000000000000
 82       0.007424363559
 83      -0.000000000000
 84       0.015133881934
 85       0.000000000000
 86      -0.000000000000
 87       0.035074457134
 88       0.000325897422
 89      -0.000000000000
 90       0.000308351394
 91      -0.000420731762
 92       0.000000000000
 93       0.000000000000
 94       0.001194239813
 95       0.001397102830
 96       0.000000000000
 97       0.001321884053
 98      -0.001803651998
 99      -0.000000000000
100       0.000000000000
101       0.005119634926
102      -0.000000000000
103      -0.000331468192
104      -0.000000000000
105      -0.000000000000
106      -0.000362139768
107      -0.000292327468
108      -0.000000000000
109       0.000000000000
110      -0.000958131766
 Sym=     1a
 Ene= -1.08324327851821E-01
 Spin= Alpha
 Occup= 0.000000
  1       0.001100994471
  2       0.033111007663
  3       0.005890820272
  4      -0.067674029911
  5       0.534541359408
  6      -0.056625564904
  7       0.000000000000
  8       0.000000000000
  9      -0.185002761927
 10       0.000000000000
 11       0.000000000000
 12      -0.235917764521
 13       0.000000000000
 14      -0.000000000000
 15      -0.187907115544
 16       0.000000000000
 17       0.000000000000
 18       0.000187660703
 19       0.000000000000
 20       0.000000000000
 21      -0.000325037871
 22       0.000000000000
 23       0.005597606709
 24      -0.000000000000
 25      -0.000000000000
 26      -0.009695339221
 27       0.000000000000
 28      -0.006438198074
 29      -0.000000000000
 30       0.000000000000
 31       0.011151286174
 32       0.000000000000
 33      -0.000000000000
 34       0.001458036592
 35      -0.000000000000
 36       0.000000000000
 37      -0.000000000000
 38       0.001882317146
 39      -0.000000000000
 40       0.000000000000
 41      -0.000990811463
 42       0.000000000000
 43      -0.000000000000
 44       0.000000000000
 45      -0.001279132098
 46       0.000000000000
 47      -0.000363892508
 48       0.000000000000
 49      -0.000000000000
 50       0.000542458923
 51       0.000000000000
 52       0.000000000000
 53      -0.000000000000
 54       0.000717605703
 55       0.000000000000
 56       0.001100994471
 57       0.033111007663
 58       0.005890820279
 59      -0.067674029961
 60       0.534541359408
 61       0.056625564904
 62       0.000000000000
 63       0.000000000000
 64       0.185002761930
 65       0.000000000000
 66       0.000000000000
 67       0.235917764552
 68       0.000000000000
 69       0.000000000000
 70       0.187907115541
 71       0.000000000000
 72       0.000000000000
 73       0.000187660703
 74       0.000000000000
 75       0.000000000000
 76      -0.000325037872
 77      -0.000000000000
 78       0.005597606709
 79      -0.000000000000
 80      -0.000000000000
 81      -0.009695339221
 82      -0.000000000000
 83      -0.006438198070
 84      -0.000000000000
 85      -0.000000000000
 86       0.011151286166
 87      -0.000000000000
 88       0.000000000000
 89      -0.001458036592
 90      -0.000000000000
 91      -0.000000000000
 92      -0.000000000000
 93      -0.001882317146
 94      -0.000000000000
 95      -0.000000000000
 96       0.000990811462
 97      -0.000000000000
 98       0.000000000000
 99       0.000000000000
100       0.001279132097
101      -0.000000000000
102      -0.000363892508
103       0.000000000000
104       0.000000000000
105       0.000542458923
106      -0.000000000000
107       0.000000000000
108      -0.000000000000
109       0.000717605703
110      -0.000000000000
 Sym=     1a
 Ene= -6.48117659961347E-02
 Spin= Alpha
 Occup= 0.000000
  1      -0.000000000000
  2      -0.000000000000
  3      -0.000000000000
  4       0.000000000000
  5      -0.000000000000
  6      -0.000000000000
  7       0.013075642091
  8      -0.036462816427
  9       0.000000000000
 10       0.038068864197
 11      -0.106159070210
 12       0.000000000000
 13       0.066611397153
 14      -0.185752954190
 15      -0.000000000000
 16       0.349610654900
 17      -0.974926435106
 18       0.000000000000
 19       0.002060710197
 20       0.000000000000
 21      -0.000000000000
 22      -0.000738974979
 23      -0.000000000000
 24       0.010705585210
 25      -0.000000000000
 26       0.000000000000
 27      -0.003839045205
 28      -0.000000000000
 29       0.073798131540
 30       0.000000000000
 31       0.000000000000
 32      -0.026464164032
 33       0.001142090792
 34       0.000000000000
 35      -0.000167200595
 36      -0.001474432872
 37       0.000000000000
 38       0.000000000000
 39      -0.000647565120
 40      -0.008203253862
 41      -0.000000000000
 42       0.001200945613
 43       0.010590355197
 44       0.000000000000
 45      -0.000000000000
 46       0.004651242358
 47       0.000000000000
 48      -0.001299807962
 49      -0.000000000000
 50      -0.000000000000
 51       0.000219728175
 52      -0.001146322873
 53      -0.000000000000
 54      -0.000000000000
 55       0.000581346108
 56       0.000000000000
 57       0.000000000000
 58       0.000000000000
 59      -0.000000000000
 60       0.000000000000
 61      -0.000000000000
 62      -0.013075642091
 63       0.036462816427
 64       0.000000000000
 65      -0.038068864197
 66       0.106159070210
 67       0.000000000000
 68      -0.066611397153
 69       0.185752954190
 70      -0.000000000000
 71      -0.349610654900
 72       0.974926435106
 73      -0.000000000000
 74       0.002060710197
 75       0.000000000000
 76       0.000000000000
 77      -0.000738974979
 78       0.000000000000
 79       0.010705585210
 80      -0.000000000000
 81      -0.000000000000
 82      -0.003839045205
 83       0.000000000000
 84       0.073798131540
 85      -0.000000000000
 86      -0.000000000000
 87      -0.026464164032
 88      -0.001142090792
 89      -0.000000000000
 90       0.000167200595
 91       0.001474432872
 92      -0.000000000000
 93      -0.000000000000
 94       0.000647565120
 95       0.008203253862
 96      -0.000000000000
 97      -0.001200945613
 98      -0.010590355197
 99       0.000000000000
100      -0.000000000000
101      -0.004651242358
102      -0.000000000000
103      -0.001299807962
104      -0.000000000000
105       0.000000000000
106       0.000219728175
107      -0.001146322873
108      -0.000000000000
109       0.000000000000
110       0.000581346108
 Sym=     1a
 Ene= -6.48117659961305E-02
 Spin= Alpha
 Occup= 0.000000
  1       0.000000000000
  2       0.000000000000
  3       0.000000000000
  4      -0.000000000000
  5       0.000000000000
  6      -0.000000000000
  7       0.036462816427
  8       0.013075642091
  9       0.000000000000
 10       0.106159070210
 11       0.038068864197
 12       0.000000000000
 13       0.185752954190
 14       0.066611397153
 15       0.000000000000
 16       0.974926435106
 17       0.349610654900
 18      -0.000000000000
 19      -0.000738974979
 20      -0.000000000000
 21      -0.000000000000
 22      -0.002060710197
 23       0.000000000000
 24      -0.003839045205
 25       0.000000000000
 26      -0.000000000000
 27      -0.010705585210
 28      -0.000000000000
 29      -0.026464164032
 30      -0.000000000000
 31       0.000000000000
 32      -0.073798131540
 33      -0.000409556142
 34      -0.000000000000
 35      -0.000466256613
 36       0.000528734706
 37       0.000000000000
 38      -0.000000000000
 39      -0.001805804099
 40       0.002941703960
 41       0.000000000000
 42       0.003348964366
 43      -0.003797723482
 44      -0.000000000000
 45       0.000000000000
 46       0.012970483214
 47       0.000000000000
 48       0.000466113849
 49      -0.000000000000
 50      -0.000000000000
 51       0.000612735350
 52       0.000411073775
 53       0.000000000000
 54       0.000000000000
 55       0.001621145354
 56       0.000000000000
 57      -0.000000000000
 58       0.000000000000
 59      -0.000000000000
 60       0.000000000000
 61      -0.000000000000
 62      -0.036462816427
 63      -0.013075642091
 64       0.000000000000
 65      -0.106159070210
 66      -0.038068864197
 67       0.000000000000
 68      -0.185752954190
 69      -0.066611397153
 70      -0.000000000000
 71      -0.974926435106
 72      -0.349610654900
 73      -0.000000000000
 74      -0.000738974979
 75       0.000000000000
 76       0.000000000000
 77      -0.002060710197
 78       0.000000000000
 79      -0.003839045205
 80      -0.000000000000
 81      -0.000000000000
 82      -0.010705585210
 83      -0.000000000000
 84      -0.026464164032
 85       0.000000000000
 86      -0.000000000000
 87      -0.073798131540
 88       0.000409556142
 89       0.000000000000
 90       0.000466256613
 91      -0.000528734706
 92       0.000000000000
 93       0.000000000000
 94       0.001805804099
 95      -0.002941703960
 96      -0.000000000000
 97      -0.003348964366
 98       0.003797723482
 99      -0.000000000000
100      -0.000000000000
101      -0.012970483214
102      -0.000000000000
103       0.000466113849
104       0.000000000000
105       0.000000000000
106       0.000612735350
107       0.000411073775
108       0.000000000000
109       0.000000000000
110       0.001621145354
 Sym=     1a
 Ene= -4.70086953105770E-02
 Spin= Alpha
 Occup= 0.000000
  1       0.023897703958
  2      -0.039783189550
  3       0.328213877210
  4      -1.601080134760
  5       1.003685147910
  6      -0.000707283459
  7       0.000000000000
  8       0.000000000000
  9       0.020899959946
 10       0.000000000000
 11       0.000000000000
 12      -0.036482345485
 13       0.000000000000
 14       0.000000000000
 15       0.902520976412
 16      -0.000000000000
 17      -0.000000000000
 18      -0.002821584085
 19      -0.000000000000
 20       0.000000000000
 21       0.004887126993
 22      -0.000000000000
 23       0.015150222640
 24       0.000000000000
 25      -0.000000000000
 26      -0.026240955359
 27       0.000000000000
 28       0.017027997191
 29       0.000000000000
 30       0.000000000000
 31      -0.029493356285
 32       0.000000000000
 33       0.000000000000
 34      -0.002405538693
 35       0.000000000000
 36       0.000000000000
 37       0.000000000000
 38      -0.003105537098
 39       0.000000000000
 40      -0.000000000000
 41       0.011985654305
 42      -0.000000000000
 43       0.000000000000
 44      -0.000000000000
 45       0.015473413173
 46      -0.000000000000
 47      -0.002040287387