g09 li2                                                                 
SP        RHF                                                         6-31+G(d,p)         
Number of atoms                            I                2
Info1-9                                    I   N=           9
          11          10           0           0           0         110
           1           1           2
Charge                                     I                0
Multiplicity                               I                1
Number of electrons                        I                6
Number of alpha electrons                  I                3
Number of beta electrons                   I                3
Number of basis functions                  I               38
Number of independent functions            I               37
Number of point charges in /Mol/           I                0
Number of translation vectors              I                0
Atomic numbers                             I   N=           2
           3           3
Nuclear charges                            R   N=           2
  3.00000000E+00  3.00000000E+00
Current cartesian coordinates              R   N=           6
  0.00000000E+00  0.00000000E+00  9.44863066E-01  1.15712353E-16  0.00000000E+00
 -9.44863066E-01
Force Field                                I                0
Int Atom Types                             I   N=           2
           0           0
MM charges                                 R   N=           2
  0.00000000E+00  0.00000000E+00
Integer atomic weights                     I   N=           2
           7           7
Real atomic weights                        R   N=           2
  7.01600450E+00  7.01600450E+00
Atom fragment info                         I   N=           2
           0           0
Atom residue num                           I   N=           2
           0           0
Nuclear spins                              I   N=           2
           3           3
Nuclear ZEff                               R   N=           2
 -1.35000000E+00 -1.35000000E+00
Nuclear ZNuc                               R   N=           2
  3.00000000E+00  3.00000000E+00
Nuclear QMom                               R   N=           2
 -4.01000000E+00 -4.01000000E+00
Nuclear GFac                               R   N=           2
  3.25642400E+00  3.25642400E+00
MicOpt                                     I   N=           2
          -1          -1
Number of contracted shells                I               10
Number of primitive shells                 I               24
Pure/Cartesian d shells                    I                1
Pure/Cartesian f shells                    I                0
Highest angular momentum                   I                2
Largest degree of contraction              I                6
Shell types                                I   N=          10
           0          -1          -1          -1           2           0
          -1          -1          -1           2
Number of primitives per shell             I   N=          10
           6           3           1           1           1           6
           3           1           1           1
Shell to atom map                          I   N=          10
           1           1           1           1           1           2
           2           2           2           2
Primitive exponents                        R   N=          24
  6.42418915E+02  9.67985153E+01  2.20911212E+01  6.20107025E+00  1.93511768E+00
  6.36735789E-01  2.32491841E+00  6.32430356E-01  7.90534348E-02  3.59619717E-02
  7.40000000E-03  2.00000000E-01  6.42418915E+02  9.67985153E+01  2.20911212E+01
  6.20107025E+00  1.93511768E+00  6.36735789E-01  2.32491841E+00  6.32430356E-01
  7.90534348E-02  3.59619717E-02  7.40000000E-03  2.00000000E-01
Contraction coefficients                   R   N=          24
  2.14260781E-03  1.62088715E-02  7.73155725E-02  2.45786052E-01  4.70189004E-01
  3.45470845E-01 -3.50917457E-02 -1.91232843E-01  1.08398779E+00  1.00000000E+00
  1.00000000E+00  1.00000000E+00  2.14260781E-03  1.62088715E-02  7.73155725E-02
  2.45786052E-01  4.70189004E-01  3.45470845E-01 -3.50917457E-02 -1.91232843E-01
  1.08398779E+00  1.00000000E+00  1.00000000E+00  1.00000000E+00
P(S=P) Contraction coefficients            R   N=          24
  0.00000000E+00  0.00000000E+00  0.00000000E+00  0.00000000E+00  0.00000000E+00
  0.00000000E+00  8.94150804E-03  1.41009464E-01  9.45363695E-01  1.00000000E+00
  1.00000000E+00  0.00000000E+00  0.00000000E+00  0.00000000E+00  0.00000000E+00
  0.00000000E+00  0.00000000E+00  0.00000000E+00  8.94150804E-03  1.41009464E-01
  9.45363695E-01  1.00000000E+00  1.00000000E+00  0.00000000E+00
Coordinates of each shell                  R   N=          30
  0.00000000E+00  0.00000000E+00  9.44863066E-01  0.00000000E+00  0.00000000E+00
  9.44863066E-01  0.00000000E+00  0.00000000E+00  9.44863066E-01  0.00000000E+00
  0.00000000E+00  9.44863066E-01  0.00000000E+00  0.00000000E+00  9.44863066E-01
  1.15712353E-16  0.00000000E+00 -9.44863066E-01  1.15712353E-16  0.00000000E+00
 -9.44863066E-01  1.15712353E-16  0.00000000E+00 -9.44863066E-01  1.15712353E-16
  0.00000000E+00 -9.44863066E-01  1.15712353E-16  0.00000000E+00 -9.44863066E-01
Constraint Structure                       R   N=           6
  0.00000000E+00  0.00000000E+00  9.44863066E-01  1.15712353E-16  0.00000000E+00
 -9.44863066E-01
Num ILSW                                   I              100
ILSW                                       I   N=         100
           0           1           0           0           2           0
           0           0           0           0           0          -1
           0           0           0           0           0           0
           0           0           1           0           0           0
           1           0           0           0           0           0
           0           0      100000           0          -1           0
           0           0           0           0           0           0
           0           0           0           1           0           0
           0           0           1           0           0           0
           0           0           4          41           0           0
           0           0           0           0           0           0
           0           0           0           0           0           0
           0           0           0           0           0           0
           0           0           0           0           0           0
           0           0           0           0           0           0
           0           0           0           0           0           0
           0           0           0           0
Num RLSW                                   I               41
RLSW                                       R   N=          41
  1.00000000E+00  1.00000000E+00  1.00000000E+00  1.00000000E+00  1.00000000E+00
  0.00000000E+00  0.00000000E+00  1.00000000E+00  0.00000000E+00  0.00000000E+00
  0.00000000E+00  0.00000000E+00  1.00000000E+00  0.00000000E+00  0.00000000E+00
  0.00000000E+00  0.00000000E+00  1.00000000E+00  0.00000000E+00  0.00000000E+00
  0.00000000E+00  0.00000000E+00  1.00000000E+00  0.00000000E+00  0.00000000E+00
  0.00000000E+00  0.00000000E+00  1.00000000E+00  0.00000000E+00  0.00000000E+00
  0.00000000E+00  0.00000000E+00  1.00000000E+00  0.00000000E+00  0.00000000E+00
  0.00000000E+00  0.00000000E+00  0.00000000E+00  1.00000000E+00  1.00000000E+00
  0.00000000E+00
MxBond                                     I                1
NBond                                      I   N=           2
           1           1
IBond                                      I   N=           2
           2           1
RBond                                      R   N=           2
  3.00000000E+00  3.00000000E+00
Virial Ratio                               R      1.961662679428668E+00
SCF Energy                                 R     -1.457836690469109E+01
Total Energy                               R     -1.457836690469109E+01
RMS Density                                R      7.069058189887628E-09
External E-field                           R   N=          35
  0.00000000E+00  0.00000000E+00  0.00000000E+00  0.00000000E+00  0.00000000E+00
  0.00000000E+00  0.00000000E+00  0.00000000E+00  0.00000000E+00  0.00000000E+00
  0.00000000E+00  0.00000000E+00  0.00000000E+00  0.00000000E+00  0.00000000E+00
  0.00000000E+00  0.00000000E+00  0.00000000E+00  0.00000000E+00  0.00000000E+00
  0.00000000E+00  0.00000000E+00  0.00000000E+00  0.00000000E+00  0.00000000E+00
  0.00000000E+00  0.00000000E+00  0.00000000E+00  0.00000000E+00  0.00000000E+00
  0.00000000E+00  0.00000000E+00  0.00000000E+00  0.00000000E+00  0.00000000E+00
IOpCl                                      I                0
IROHF                                      I                0
Alpha Orbital Energies                     R   N=          37
 -2.82946418E+00 -2.53963408E+00 -2.18362560E-01  1.27125660E-03  1.27125660E-03
  9.66478129E-03  1.51063514E-02  2.50461359E-02  2.50461359E-02  3.11966459E-02
  3.11966459E-02  3.29385912E-02  4.17764349E-02  1.05195227E-01  1.14728089E-01
  1.14728089E-01  1.46037075E-01  1.46272658E-01  1.46272658E-01  2.12441782E-01
  2.40369763E-01  3.06725893E-01  3.78377780E-01  3.78377780E-01  4.72707669E-01
  4.72707669E-01  6.60040049E-01  6.60040049E-01  6.88822219E-01  7.24193517E-01
  7.24193517E-01  9.34926843E-01  1.16486922E+00  1.16486922E+00  1.34570104E+00
  1.34664922E+00  5.15999443E+00
Alpha MO coefficients                      R   N=        1406
  6.68030666E-01 -1.62708187E-02  0.00000000E+00  0.00000000E+00 -3.00686731E-02
  1.60523267E-02  0.00000000E+00  0.00000000E+00  2.90457263E-02 -3.74889609E-03
  0.00000000E+00  0.00000000E+00 -2.99782540E-03  9.83859879E-04  9.83859879E-04
  1.47452673E-03  0.00000000E+00  0.00000000E+00  0.00000000E+00  6.68030666E-01
 -1.62708187E-02  0.00000000E+00  0.00000000E+00  3.00686731E-02  1.60523267E-02
  0.00000000E+00  0.00000000E+00 -2.90457263E-02 -3.74889609E-03  0.00000000E+00
  0.00000000E+00  2.99782540E-03  9.83859879E-04  9.83859879E-04  1.47452673E-03
  0.00000000E+00  0.00000000E+00  0.00000000E+00  7.40114079E-01 -8.53193510E-02
  0.00000000E+00  0.00000000E+00  7.32734528E-03  2.20456355E-01  0.00000000E+00
  0.00000000E+00 -3.45369599E-02  1.64746172E-03  0.00000000E+00  0.00000000E+00
 -6.64186996E-04  1.91828398E-02  1.91828398E-02  1.65819750E-02  0.00000000E+00
  0.00000000E+00  0.00000000E+00 -7.40114079E-01  8.53193510E-02  0.00000000E+00
  0.00000000E+00  7.32734528E-03 -2.20456355E-01  0.00000000E+00  0.00000000E+00
 -3.45369599E-02 -1.64746172E-03  0.00000000E+00  0.00000000E+00 -6.64186996E-04
 -1.91828398E-02 -1.91828398E-02 -1.65819750E-02  0.00000000E+00  0.00000000E+00
  0.00000000E+00 -1.44650196E-01  3.55659997E-01  0.00000000E+00  0.00000000E+00
  1.05114487E-01  1.62266310E-01  0.00000000E+00  0.00000000E+00 -7.88781383E-02
  3.07573634E-02  0.00000000E+00  0.00000000E+00 -5.39181013E-02  1.66024674E-02
  1.66024674E-02 -3.24077419E-02  0.00000000E+00  0.00000000E+00  0.00000000E+00
 -1.44650196E-01  3.55659997E-01  0.00000000E+00  0.00000000E+00 -1.05114487E-01
  1.62266310E-01  0.00000000E+00  0.00000000E+00  7.88781383E-02  3.07573634E-02
  0.00000000E+00  0.00000000E+00  5.39181013E-02  1.66024674E-02  1.66024674E-02
 -3.24077419E-02  0.00000000E+00  0.00000000E+00  0.00000000E+00  0.00000000E+00
  0.00000000E+00  2.90369937E-01  0.00000000E+00  0.00000000E+00  0.00000000E+00
  5.05173289E-02  0.00000000E+00  0.00000000E+00  0.00000000E+00  2.99507774E-01
  0.00000000E+00  0.00000000E+00  0.00000000E+00  0.00000000E+00  0.00000000E+00
  0.00000000E+00 -3.73381656E-02  0.00000000E+00  0.00000000E+00  0.00000000E+00
  2.90369937E-01  0.00000000E+00  0.00000000E+00  0.00000000E+00  5.05173289E-02
  0.00000000E+00  0.00000000E+00  0.00000000E+00  2.99507774E-01  0.00000000E+00
  0.00000000E+00  0.00000000E+00  0.00000000E+00  0.00000000E+00  0.00000000E+00
  3.73381656E-02  0.00000000E+00  0.00000000E+00  0.00000000E+00  0.00000000E+00
  2.90369937E-01  0.00000000E+00  0.00000000E+00  0.00000000E+00  5.05173289E-02
  0.00000000E+00  0.00000000E+00  0.00000000E+00  2.99507774E-01  0.00000000E+00
  0.00000000E+00  0.00000000E+00  0.00000000E+00  0.00000000E+00  0.00000000E+00
 -3.73381656E-02  0.00000000E+00  0.00000000E+00  0.00000000E+00  2.90369937E-01
  0.00000000E+00  0.00000000E+00  0.00000000E+00  5.05173289E-02  0.00000000E+00
  0.00000000E+00  0.00000000E+00  2.99507774E-01  0.00000000E+00  0.00000000E+00
  0.00000000E+00  0.00000000E+00  0.00000000E+00  0.00000000E+00  3.73381656E-02
 -3.74662125E-02  1.34711311E-01  0.00000000E+00  0.00000000E+00  9.32215825E-02
  8.45028126E-03  0.00000000E+00  0.00000000E+00  6.15874381E-02  3.39522227E-02
  0.00000000E+00  0.00000000E+00  4.19963592E-01 -9.28868802E-03 -9.28868802E-03
 -9.95001523E-03  0.00000000E+00  0.00000000E+00  0.00000000E+00  3.74662125E-02
 -1.34711311E-01  0.00000000E+00  0.00000000E+00  9.32215825E-02 -8.45028126E-03
  0.00000000E+00  0.00000000E+00  6.15874381E-02 -3.39522227E-02  0.00000000E+00
  0.00000000E+00  4.19963592E-01  9.28868802E-03  9.28868802E-03  9.95001523E-03
  0.00000000E+00  0.00000000E+00  0.00000000E+00  2.81279836E-02 -2.61307817E-03
  0.00000000E+00  0.00000000E+00  1.01225507E-02 -2.02320098E-01  0.00000000E+00
  0.00000000E+00 -1.42398066E-01  6.77892593E-01  0.00000000E+00  0.00000000E+00
  2.63503153E+00 -1.23972027E-02 -1.23972027E-02  1.72344141E-03  0.00000000E+00
  0.00000000E+00  0.00000000E+00  2.81279836E-02 -2.61307817E-03  0.00000000E+00
  0.00000000E+00 -1.01225507E-02 -2.02320098E-01  0.00000000E+00  0.00000000E+00
  1.42398066E-01  6.77892593E-01  0.00000000E+00  0.00000000E+00 -2.63503153E+00
 -1.23972027E-02 -1.23972027E-02  1.72344141E-03  0.00000000E+00  0.00000000E+00
  0.00000000E+00  0.00000000E+00  0.00000000E+00  4.67587356E-02  0.00000000E+00
  0.00000000E+00  0.00000000E+00 -2.05142616E-01  0.00000000E+00  0.00000000E+00
  0.00000000E+00  6.31074747E+00  0.00000000E+00  0.00000000E+00  0.00000000E+00
  0.00000000E+00  0.00000000E+00  0.00000000E+00  1.76818688E-04  0.00000000E+00
  0.00000000E+00  0.00000000E+00 -4.67587356E-02  0.00000000E+00  0.00000000E+00
  0.00000000E+00  2.05142616E-01  0.00000000E+00  0.00000000E+00  0.00000000E+00
 -6.31074747E+00  0.00000000E+00  0.00000000E+00  0.00000000E+00  0.00000000E+00
  0.00000000E+00  0.00000000E+00  1.76818688E-04  0.00000000E+00  0.00000000E+00
  0.00000000E+00  0.00000000E+00  4.67587356E-02  0.00000000E+00  0.00000000E+00
  0.00000000E+00 -2.05142616E-01  0.00000000E+00  0.00000000E+00  0.00000000E+00
  6.31074747E+00  0.00000000E+00  0.00000000E+00  0.00000000E+00  0.00000000E+00
  0.00000000E+00  0.00000000E+00  1.76818688E-04  0.00000000E+00  0.00000000E+00
  0.00000000E+00 -4.67587356E-02  0.00000000E+00  0.00000000E+00  0.00000000E+00
  2.05142616E-01  0.00000000E+00  0.00000000E+00  0.00000000E+00 -6.31074747E+00
  0.00000000E+00  0.00000000E+00  0.00000000E+00  0.00000000E+00  0.00000000E+00
  0.00000000E+00  1.76818688E-04  0.00000000E+00  0.00000000E+00  0.00000000E+00
 -2.09179914E-01  0.00000000E+00  0.00000000E+00  0.00000000E+00 -2.43304568E-01
  0.00000000E+00  0.00000000E+00  0.00000000E+00  4.77329345E-01  0.00000000E+00
  0.00000000E+00  0.00000000E+00  0.00000000E+00  0.00000000E+00  0.00000000E+00
  4.20667850E-02  0.00000000E+00  0.00000000E+00  0.00000000E+00 -2.09179914E-01
  0.00000000E+00  0.00000000E+00  0.00000000E+00 -2.43304568E-01  0.00000000E+00
  0.00000000E+00  0.00000000E+00  4.77329345E-01  0.00000000E+00  0.00000000E+00
  0.00000000E+00  0.00000000E+00  0.00000000E+00  0.00000000E+00 -4.20667850E-02
  0.00000000E+00  0.00000000E+00 -2.09179914E-01  0.00000000E+00  0.00000000E+00
  0.00000000E+00 -2.43304568E-01  0.00000000E+00  0.00000000E+00  0.00000000E+00
  4.77329345E-01  0.00000000E+00  0.00000000E+00  0.00000000E+00  0.00000000E+00
  0.00000000E+00  0.00000000E+00  4.20667850E-02  0.00000000E+00  0.00000000E+00
  0.00000000E+00 -2.09179914E-01  0.00000000E+00  0.00000000E+00  0.00000000E+00
 -2.43304568E-01  0.00000000E+00  0.00000000E+00  0.00000000E+00  4.77329345E-01
  0.00000000E+00  0.00000000E+00  0.00000000E+00  0.00000000E+00  0.00000000E+00
  0.00000000E+00 -4.20667850E-02  0.00000000E+00 -4.63140853E-02 -1.72581910E-01
  0.00000000E+00  0.00000000E+00  2.84322469E-02  5.99970011E-01  0.00000000E+00
  0.00000000E+00  7.80511688E-02 -2.30385240E-01  0.00000000E+00  0.00000000E+00
  4.03981922E+00  3.80104942E-02  3.80104942E-02  2.50853198E-02  0.00000000E+00
  0.00000000E+00  0.00000000E+00 -4.63140853E-02 -1.72581910E-01  0.00000000E+00
  0.00000000E+00 -2.84322469E-02  5.99970011E-01  0.00000000E+00  0.00000000E+00
 -7.80511688E-02 -2.30385240E-01  0.00000000E+00  0.00000000E+00 -4.03981922E+00
  3.80104942E-02  3.80104942E-02  2.50853198E-02  0.00000000E+00  0.00000000E+00
  0.00000000E+00  6.33599599E-02 -1.51817307E-01  0.00000000E+00  0.00000000E+00
 -1.02562387E-01  1.77111373E+01  0.00000000E+00  0.00000000E+00 -3.74888052E+00
  1.65982986E-01  0.00000000E+00  0.00000000E+00  4.25060614E-01 -4.65799674E-03
 -4.65799674E-03  1.46387895E-02  0.00000000E+00  0.00000000E+00  0.00000000E+00
 -6.33599599E-02  1.51817307E-01  0.00000000E+00  0.00000000E+00 -1.02562387E-01
 -1.77111373E+01  0.00000000E+00  0.00000000E+00 -3.74888052E+00 -1.65982986E-01
  0.00000000E+00  0.00000000E+00  4.25060614E-01  4.65799674E-03  4.65799674E-03
 -1.46387895E-02  0.00000000E+00  0.00000000E+00  0.00000000E+00  3.81887195E-02
 -2.14382250E-01  0.00000000E+00  0.00000000E+00 -1.06387005E-01  6.26122132E-01
  0.00000000E+00  0.00000000E+00  2.24671801E+00 -2.84992249E-01  0.00000000E+00
  0.00000000E+00 -9.18203985E-01  3.07721115E-02  3.07721115E-02  9.88441086E-02
  0.00000000E+00  0.00000000E+00  0.00000000E+00  3.81887195E-02 -2.14382250E-01
  0.00000000E+00  0.00000000E+00  1.06387005E-01  6.26122132E-01  0.00000000E+00
  0.00000000E+00 -2.24671801E+00 -2.84992249E-01  0.00000000E+00  0.00000000E+00
  9.18203985E-01  3.07721115E-02  3.07721115E-02  9.88441086E-02  0.00000000E+00
  0.00000000E+00  0.00000000E+00  0.00000000E+00  0.00000000E+00  0.00000000E+00
 -1.44541139E-01  0.00000000E+00  0.00000000E+00  0.00000000E+00  3.14361408E+00
  0.00000000E+00  0.00000000E+00  0.00000000E+00 -2.20610990E+00  0.00000000E+00
  0.00000000E+00  0.00000000E+00  0.00000000E+00  0.00000000E+00  0.00000000E+00
  4.37957833E-02  0.00000000E+00  0.00000000E+00  0.00000000E+00  1.44541139E-01
  0.00000000E+00  0.00000000E+00  0.00000000E+00 -3.14361408E+00  0.00000000E+00
  0.00000000E+00  0.00000000E+00  2.20610990E+00  0.00000000E+00  0.00000000E+00
  0.00000000E+00  0.00000000E+00  0.00000000E+00  0.00000000E+00  4.37957833E-02
  0.00000000E+00  0.00000000E+00 -1.44541139E-01  0.00000000E+00  0.00000000E+00
  0.00000000E+00  3.14361408E+00  0.00000000E+00  0.00000000E+00  0.00000000E+00
 -2.20610990E+00  0.00000000E+00  0.00000000E+00  0.00000000E+00  0.00000000E+00
  0.00000000E+00  0.00000000E+00  4.37957833E-02  0.00000000E+00  0.00000000E+00
  0.00000000E+00  1.44541139E-01  0.00000000E+00  0.00000000E+00  0.00000000E+00
 -3.14361408E+00  0.00000000E+00  0.00000000E+00  0.00000000E+00  2.20610990E+00
  0.00000000E+00  0.00000000E+00  0.00000000E+00  0.00000000E+00  0.00000000E+00
  0.00000000E+00  4.37957833E-02  0.00000000E+00 -5.71993930E-02  2.78248069E-01
  0.00000000E+00  0.00000000E+00  2.01994445E-03  1.16731409E+02  0.00000000E+00
  0.00000000E+00 -2.17302841E+01  8.73067383E-01  0.00000000E+00  0.00000000E+00
  1.60960514E-01 -8.93618319E-02 -8.93618319E-02 -4.69927183E-02  0.00000000E+00
  0.00000000E+00  0.00000000E+00  5.71993930E-02 -2.78248069E-01  0.00000000E+00
  0.00000000E+00  2.01994445E-03 -1.16731409E+02  0.00000000E+00  0.00000000E+00
 -2.17302841E+01 -8.73067383E-01  0.00000000E+00  0.00000000E+00  1.60960514E-01
  8.93618319E-02  8.93618319E-02  4.69927183E-02  0.00000000E+00  0.00000000E+00
  0.00000000E+00  0.00000000E+00  0.00000000E+00  0.00000000E+00 -8.49252009E-01
  0.00000000E+00  0.00000000E+00  0.00000000E+00  9.97434682E-01  0.00000000E+00
  0.00000000E+00  0.00000000E+00 -2.41806532E-01  0.00000000E+00  0.00000000E+00
  0.00000000E+00  0.00000000E+00  0.00000000E+00  0.00000000E+00  2.55386558E-02
  0.00000000E+00  0.00000000E+00  0.00000000E+00 -8.49252009E-01  0.00000000E+00
  0.00000000E+00  0.00000000E+00  9.97434682E-01  0.00000000E+00  0.00000000E+00
  0.00000000E+00 -2.41806532E-01  0.00000000E+00  0.00000000E+00  0.00000000E+00
  0.00000000E+00  0.00000000E+00  0.00000000E+00 -2.55386558E-02  0.00000000E+00
  0.00000000E+00 -8.49252009E-01  0.00000000E+00  0.00000000E+00  0.00000000E+00
  9.97434682E-01  0.00000000E+00  0.00000000E+00  0.00000000E+00 -2.41806532E-01
  0.00000000E+00  0.00000000E+00  0.00000000E+00  0.00000000E+00  0.00000000E+00
  0.00000000E+00  2.55386558E-02  0.00000000E+00  0.00000000E+00  0.00000000E+00
 -8.49252009E-01  0.00000000E+00  0.00000000E+00  0.00000000E+00  9.97434682E-01
  0.00000000E+00  0.00000000E+00  0.00000000E+00 -2.41806532E-01  0.00000000E+00
  0.00000000E+00  0.00000000E+00  0.00000000E+00  0.00000000E+00  0.00000000E+00
 -2.55386558E-02  0.00000000E+00  2.91242397E-02  2.14863115E+00  0.00000000E+00
  0.00000000E+00  5.16312478E-02 -1.89720185E+00  0.00000000E+00  0.00000000E+00
  9.50345044E-01  2.79792584E-01  0.00000000E+00  0.00000000E+00 -1.48557264E+00
 -1.95916744E-01 -1.95916744E-01 -6.98465467E-02  0.00000000E+00  0.00000000E+00
  0.00000000E+00  2.91242397E-02  2.14863115E+00  0.00000000E+00  0.00000000E+00
 -5.16312478E-02 -1.89720185E+00  0.00000000E+00  0.00000000E+00 -9.50345044E-01
  2.79792584E-01  0.00000000E+00  0.00000000E+00  1.48557264E+00 -1.95916744E-01
 -1.95916744E-01 -6.98465467E-02  0.00000000E+00  0.00000000E+00  0.00000000E+00
  8.02156294E-02 -6.39843463E-01  0.00000000E+00  0.00000000E+00 -1.17915615E+00
  8.90091895E+01  0.00000000E+00  0.00000000E+00 -1.52729898E+01  6.46253104E-01
  0.00000000E+00  0.00000000E+00 -1.31000493E-01 -6.38561660E-02 -6.38561660E-02
 -6.54411562E-02  0.00000000E+00  0.00000000E+00  0.00000000E+00 -8.02156294E-02
  6.39843463E-01  0.00000000E+00  0.00000000E+00 -1.17915615E+00 -8.90091895E+01
  0.00000000E+00  0.00000000E+00 -1.52729898E+01 -6.46253104E-01  0.00000000E+00
  0.00000000E+00 -1.31000493E-01  6.38561660E-02  6.38561660E-02  6.54411562E-02
  0.00000000E+00  0.00000000E+00  0.00000000E+00 -9.64161808E-02  3.57424674E-01
  0.00000000E+00  0.00000000E+00 -1.27565406E+00  1.01085187E-01  0.00000000E+00
  0.00000000E+00  1.94329737E+00 -1.13943544E-01  0.00000000E+00  0.00000000E+00
 -5.88725245E-01  2.49957961E-02  2.49957961E-02 -4.21662106E-01  0.00000000E+00
  0.00000000E+00  0.00000000E+00 -9.64161808E-02  3.57424674E-01  0.00000000E+00
  0.00000000E+00  1.27565406E+00  1.01085187E-01  0.00000000E+00  0.00000000E+00
 -1.94329737E+00 -1.13943544E-01  0.00000000E+00  0.00000000E+00  5.88725245E-01
  2.49957961E-02  2.49957961E-02 -4.21662106E-01  0.00000000E+00  0.00000000E+00
  0.00000000E+00  0.00000000E+00  0.00000000E+00  0.00000000E+00 -1.56905622E+00
  0.00000000E+00  0.00000000E+00  0.00000000E+00  2.44018640E+00  0.00000000E+00
  0.00000000E+00  0.00000000E+00 -1.11343394E+00  0.00000000E+00  0.00000000E+00
  0.00000000E+00  0.00000000E+00  0.00000000E+00  0.00000000E+00 -3.02639199E-01
  0.00000000E+00  0.00000000E+00  0.00000000E+00  1.56905622E+00  0.00000000E+00
  0.00000000E+00  0.00000000E+00 -2.44018640E+00  0.00000000E+00  0.00000000E+00
  0.00000000E+00  1.11343394E+00  0.00000000E+00  0.00000000E+00  0.00000000E+00
  0.00000000E+00  0.00000000E+00  0.00000000E+00 -3.02639199E-01  0.00000000E+00
  0.00000000E+00 -1.56905622E+00  0.00000000E+00  0.00000000E+00  0.00000000E+00
  2.44018640E+00  0.00000000E+00  0.00000000E+00  0.00000000E+00 -1.11343394E+00
  0.00000000E+00  0.00000000E+00  0.00000000E+00  0.00000000E+00  0.00000000E+00
  0.00000000E+00 -3.02639199E-01  0.00000000E+00  0.00000000E+00  0.00000000E+00
  1.56905622E+00  0.00000000E+00  0.00000000E+00  0.00000000E+00 -2.44018640E+00
  0.00000000E+00  0.00000000E+00  0.00000000E+00  1.11343394E+00  0.00000000E+00
  0.00000000E+00  0.00000000E+00  0.00000000E+00  0.00000000E+00  0.00000000E+00
 -3.02639199E-01  0.00000000E+00  0.00000000E+00  0.00000000E+00  0.00000000E+00
  0.00000000E+00  0.00000000E+00  0.00000000E+00  0.00000000E+00  0.00000000E+00
  0.00000000E+00  0.00000000E+00  0.00000000E+00  0.00000000E+00  0.00000000E+00
  0.00000000E+00  0.00000000E+00  0.00000000E+00  5.42374325E-01  0.00000000E+00
  0.00000000E+00  0.00000000E+00  0.00000000E+00  0.00000000E+00  0.00000000E+00
  0.00000000E+00  0.00000000E+00  0.00000000E+00  0.00000000E+00  0.00000000E+00
  0.00000000E+00  0.00000000E+00  0.00000000E+00  0.00000000E+00  0.00000000E+00
  0.00000000E+00  0.00000000E+00  5.42374325E-01  0.00000000E+00  0.00000000E+00
  3.32431293E-17 -4.43494601E-15  0.00000000E+00  0.00000000E+00 -2.67426457E-15
  4.02990201E-16  0.00000000E+00  0.00000000E+00  7.11834447E-15 -3.29393893E-16
  0.00000000E+00  0.00000000E+00 -7.38911347E-15  4.69709943E-01 -4.69709943E-01
  1.30856924E-15  0.00000000E+00  0.00000000E+00  0.00000000E+00  3.32431293E-17
 -4.43494601E-15  0.00000000E+00  0.00000000E+00  2.67426457E-15  4.02990201E-16
  0.00000000E+00  0.00000000E+00 -7.11834447E-15 -3.29393893E-16  0.00000000E+00
  0.00000000E+00  7.38911347E-15  4.69709943E-01 -4.69709943E-01  1.30856924E-15
  0.00000000E+00  0.00000000E+00  0.00000000E+00  0.00000000E+00  0.00000000E+00
  0.00000000E+00  4.62434430E-01  0.00000000E+00  0.00000000E+00  0.00000000E+00
 -3.30612208E-01  0.00000000E+00  0.00000000E+00  0.00000000E+00  6.05698188E-02
  0.00000000E+00  0.00000000E+00  0.00000000E+00  0.00000000E+00  0.00000000E+00
  0.00000000E+00  8.64439418E-01  0.00000000E+00  0.00000000E+00  0.00000000E+00
  4.62434430E-01  0.00000000E+00  0.00000000E+00  0.00000000E+00 -3.30612208E-01
  0.00000000E+00  0.00000000E+00  0.00000000E+00  6.05698188E-02  0.00000000E+00
  0.00000000E+00  0.00000000E+00  0.00000000E+00  0.00000000E+00  0.00000000E+00
 -8.64439418E-01  0.00000000E+00  0.00000000E+00  4.62434430E-01  0.00000000E+00
  0.00000000E+00  0.00000000E+00 -3.30612208E-01  0.00000000E+00  0.00000000E+00
  0.00000000E+00  6.05698188E-02  0.00000000E+00  0.00000000E+00  0.00000000E+00
  0.00000000E+00  0.00000000E+00  0.00000000E+00  8.64439418E-01  0.00000000E+00
  0.00000000E+00  0.00000000E+00  4.62434430E-01  0.00000000E+00  0.00000000E+00
  0.00000000E+00 -3.30612208E-01  0.00000000E+00  0.00000000E+00  0.00000000E+00
  6.05698188E-02  0.00000000E+00  0.00000000E+00  0.00000000E+00  0.00000000E+00
  0.00000000E+00  0.00000000E+00 -8.64439418E-01  0.00000000E+00  9.46599371E-02
  3.09823025E-01  0.00000000E+00  0.00000000E+00  5.37478838E-01  2.41220567E+01
  0.00000000E+00  0.00000000E+00 -4.66943948E+00  1.80973965E-01  0.00000000E+00
  0.00000000E+00  5.54966045E-02 -1.00321934E+00 -1.00321934E+00  3.83698264E-01
  0.00000000E+00  0.00000000E+00  0.00000000E+00 -9.46599371E-02 -3.09823025E-01
  0.00000000E+00  0.00000000E+00  5.37478838E-01 -2.41220567E+01  0.00000000E+00
  0.00000000E+00 -4.66943948E+00 -1.80973965E-01  0.00000000E+00  0.00000000E+00
  5.54966045E-02  1.00321934E+00  1.00321934E+00 -3.83698264E-01  0.00000000E+00
  0.00000000E+00  0.00000000E+00  0.00000000E+00  0.00000000E+00  0.00000000E+00
  0.00000000E+00  0.00000000E+00  0.00000000E+00  0.00000000E+00  0.00000000E+00
  0.00000000E+00  0.00000000E+00  0.00000000E+00  0.00000000E+00  0.00000000E+00
  0.00000000E+00  0.00000000E+00  0.00000000E+00  1.29034511E+00  0.00000000E+00
  0.00000000E+00  0.00000000E+00  0.00000000E+00  0.00000000E+00  0.00000000E+00
  0.00000000E+00  0.00000000E+00  0.00000000E+00  0.00000000E+00  0.00000000E+00
  0.00000000E+00  0.00000000E+00  0.00000000E+00  0.00000000E+00  0.00000000E+00
  0.00000000E+00  0.00000000E+00 -1.29034511E+00  0.00000000E+00  0.00000000E+00
  5.50327520E-14  2.34618882E-13  0.00000000E+00  0.00000000E+00  7.49394457E-14
  3.19163285E-11  0.00000000E+00  0.00000000E+00 -5.89772879E-12  2.36970595E-13
  0.00000000E+00  0.00000000E+00  3.48084073E-14  1.11747164E+00 -1.11747164E+00
  1.18834111E-13  0.00000000E+00  0.00000000E+00  0.00000000E+00 -5.50327520E-14
 -2.34618882E-13  0.00000000E+00  0.00000000E+00  7.49394457E-14 -3.19163285E-11
  0.00000000E+00  0.00000000E+00 -5.89772879E-12 -2.36970595E-13  0.00000000E+00
  0.00000000E+00  3.48084073E-14 -1.11747164E+00  1.11747164E+00 -1.18834111E-13
  0.00000000E+00  0.00000000E+00  0.00000000E+00  5.80785618E-01  7.19966653E+00
  0.00000000E+00  0.00000000E+00  1.33904598E+00 -3.08677451E+00  0.00000000E+00
  0.00000000E+00 -2.59758327E-02  3.41472365E-01  0.00000000E+00  0.00000000E+00
 -1.02479484E+00 -1.69551644E+00 -1.69551644E+00 -2.74962089E+00  0.00000000E+00
  0.00000000E+00  0.00000000E+00  5.80785618E-01  7.19966653E+00  0.00000000E+00
  0.00000000E+00 -1.33904598E+00 -3.08677451E+00  0.00000000E+00  0.00000000E+00
  2.59758327E-02  3.41472365E-01  0.00000000E+00  0.00000000E+00  1.02479484E+00
 -1.69551644E+00 -1.69551644E+00 -2.74962089E+00  0.00000000E+00  0.00000000E+00
  0.00000000E+00  0.00000000E+00  0.00000000E+00  5.27346847E+00  0.00000000E+00
  0.00000000E+00  0.00000000E+00 -3.60632395E+00  0.00000000E+00  0.00000000E+00
  0.00000000E+00  1.29545225E+00  0.00000000E+00  0.00000000E+00  0.00000000E+00
  0.00000000E+00  0.00000000E+00  0.00000000E+00 -1.43536680E+00  0.00000000E+00
  0.00000000E+00  0.00000000E+00 -5.27346847E+00  0.00000000E+00  0.00000000E+00
  0.00000000E+00  3.60632395E+00  0.00000000E+00  0.00000000E+00  0.00000000E+00
 -1.29545225E+00  0.00000000E+00  0.00000000E+00  0.00000000E+00  0.00000000E+00
  0.00000000E+00  0.00000000E+00 -1.43536680E+00  0.00000000E+00  0.00000000E+00