Foo Bar                                                                 
SP        UHF                                                         3-21G               
Number of atoms                            I                2
Charge                                     I                1
Multiplicity                               I                2
Number of electrons                        I                3
Number of alpha electrons                  I                2
Number of beta electrons                   I                1
Number of basis functions                  I               11
Number of independent functions            I               11
Atomic numbers                             I   N=           2
           3           1
Nuclear charges                            R   N=           2
  3.00000000E+00  1.00000000E+00
Current cartesian coordinates              R   N=           6
  0.00000000E+00  0.00000000E+00  1.11419479E+00  0.00000000E+00  0.00000000E+00
 -3.34258438E+00
Real atomic weights                        R   N=           2
  7.01600450E+00  1.00782504E+00
Number of contracted shells                I                5
Number of primitive shells                 I                9
Shell types                                I   N=           5
           0          -1          -1           0           0
Number of primitives per shell             I   N=           5
           3           2           1           2           1
Shell to atom map                          I   N=           5
           1           1           1           2           2
Primitive exponents                        R   N=           9
  3.68382000E+01  5.48172000E+00  1.11327000E+00  5.40205000E-01  1.02255000E-01
  2.85645000E-02  5.44717800E+00  8.24547240E-01  1.83191580E-01
Contraction coefficients                   R   N=           9
  6.96686638E-02  3.81346349E-01  6.81702624E-01 -2.63126406E-01  1.14338742E+00
  1.00000000E+00  1.56284979E-01  9.04690877E-01  1.00000000E+00
P(S=P) Contraction coefficients            R   N=           9
  0.00000000E+00  0.00000000E+00  0.00000000E+00  1.61545971E-01  9.15662835E-01
  1.00000000E+00  0.00000000E+00  0.00000000E+00  0.00000000E+00
Coordinates of each shell                  R   N=          15
  0.00000000E+00  0.00000000E+00  1.11419479E+00  0.00000000E+00  0.00000000E+00
  1.11419479E+00  0.00000000E+00  0.00000000E+00  1.11419479E+00  0.00000000E+00
  0.00000000E+00 -3.34258438E+00  0.00000000E+00  0.00000000E+00 -3.34258438E+00
Constraint Structure                       R   N=           6
  0.00000000E+00  0.00000000E+00  1.11419479E+00  0.00000000E+00  0.00000000E+00
 -3.34258438E+00
Virial Ratio                               R      2.006115653765381E+00
SCF Energy                                 R     -7.687331212191968E+00
Total Energy                               R     -7.687331212191968E+00
S**2                                       R      7.500000268246964E-01
S**2 after annihilation                    R      7.500000000000012E-01
RMS Density                                R      2.838350961263472E-09
Alpha Orbital Energies                     R   N=          11
 -2.76116635E+00 -7.24564188E-01 -1.79148636E-01 -1.28235698E-01 -1.28235698E-01
 -7.59817520E-02 -1.13855167E-02  6.52484445E-03  6.52484445E-03  7.52201895E-03
  9.70893294E-01
Beta Orbital Energies                      R   N=          11
 -2.76031162E+00 -2.08814026E-01 -1.53071066E-01 -1.25264964E-01 -1.25264964E-01
 -1.24605870E-02  5.12761388E-03  7.70499854E-03  7.70499854E-03  2.85176080E-02
  1.13197479E+00
Alpha MO coefficients                      R   N=         121
  9.91045764E-01  6.31114902E-02  0.00000000E+00  0.00000000E+00 -1.24527647E-03
 -2.28906226E-02  0.00000000E+00  0.00000000E+00 -1.12775114E-03  6.94616309E-04
 -3.66021814E-03 -3.84433703E-02  7.32533271E-02  0.00000000E+00  0.00000000E+00
 -8.64559993E-02  2.41185734E-02  0.00000000E+00  0.00000000E+00 -3.57653627E-03
  3.72648950E-01  6.51071056E-01 -1.87949688E-01  3.69191539E-01  0.00000000E+00
  0.00000000E+00  1.20939967E-01  6.78262597E-01  0.00000000E+00  0.00000000E+00
  1.70091123E-01 -5.74741131E-02 -1.82665062E-01  0.00000000E+00  0.00000000E+00
  4.64620690E-01  0.00000000E+00  0.00000000E+00  0.00000000E+00  6.53303968E-01
  0.00000000E+00  0.00000000E+00  0.00000000E+00  0.00000000E+00  0.00000000E+00
  0.00000000E+00  0.00000000E+00  4.64620690E-01  0.00000000E+00  0.00000000E+00
  0.00000000E+00  6.53303968E-01  0.00000000E+00  0.00000000E+00  0.00000000E+00
  6.65883183E-02 -1.60608501E-01  0.00000000E+00  0.00000000E+00  4.24462280E-01
 -2.87188222E-01  0.00000000E+00  0.00000000E+00  8.19590059E-01  1.15961774E-01
  6.02577016E-01 -7.06624271E-02  1.02695063E+00  0.00000000E+00  0.00000000E+00
 -8.90427746E-01 -9.35377006E-01  0.00000000E+00  0.00000000E+00  7.59258253E-01
 -3.01263956E-02 -4.34266399E-02  0.00000000E+00  0.00000000E+00  1.14639175E+00
  0.00000000E+00  0.00000000E+00  0.00000000E+00 -1.05037153E+00  0.00000000E+00
  0.00000000E+00  0.00000000E+00  0.00000000E+00  0.00000000E+00  0.00000000E+00
  0.00000000E+00  1.14639175E+00  0.00000000E+00  0.00000000E+00  0.00000000E+00
 -1.05037153E+00  0.00000000E+00  0.00000000E+00  0.00000000E+00 -7.35670920E-02
  1.17744225E+00  0.00000000E+00  0.00000000E+00  7.97788271E-01 -1.14725371E+00
  0.00000000E+00  0.00000000E+00 -6.07642218E-01  1.91525025E-02  1.36664994E-01
  1.66972438E-02 -5.65132953E-02  0.00000000E+00  0.00000000E+00  1.78276803E-01
 -2.42497407E-01  0.00000000E+00  0.00000000E+00  2.28617324E-01 -1.30281941E+00
  1.39680866E+00
Beta MO coefficients                       R   N=         121
  9.91083998E-01  6.29451985E-02  0.00000000E+00  0.00000000E+00 -9.86304272E-04
 -2.28074696E-02  0.00000000E+00  0.00000000E+00 -1.25069410E-03  2.98539644E-04
 -4.21545598E-03 -1.67626231E-01  3.08269927E-01  0.00000000E+00  0.00000000E+00
 -1.11736925E-01  5.71347805E-01  0.00000000E+00  0.00000000E+00 -1.09960049E-01
  1.05416648E-01  2.17602089E-01 -8.66276768E-02  1.64198926E-01  0.00000000E+00
  0.00000000E+00  3.77618483E-01  3.43701182E-01  0.00000000E+00  0.00000000E+00
  4.65910068E-01 -9.63979309E-02 -2.28524694E-01  0.00000000E+00  0.00000000E+00
  4.53311513E-01  0.00000000E+00  0.00000000E+00  0.00000000E+00  6.63613607E-01
  0.00000000E+00  0.00000000E+00  0.00000000E+00  0.00000000E+00  0.00000000E+00
  0.00000000E+00  0.00000000E+00  4.53311513E-01  0.00000000E+00  0.00000000E+00
  0.00000000E+00  6.63613607E-01  0.00000000E+00  0.00000000E+00  0.00000000E+00
  2.20348634E-02  2.49023314E-01  0.00000000E+00  0.00000000E+00 -5.56263725E-01
 -5.71980100E-01  0.00000000E+00  0.00000000E+00  1.13735565E+00  9.44616097E-02
  6.59373953E-01 -1.11311756E-01  1.54829271E+00  0.00000000E+00  0.00000000E+00
  1.82385807E-01 -1.38336728E+00  0.00000000E+00  0.00000000E+00 -2.45106613E-01
 -2.17121652E-02 -4.81573903E-02  0.00000000E+00  0.00000000E+00  1.15091055E+00
  0.00000000E+00  0.00000000E+00  0.00000000E+00 -1.04388860E+00  0.00000000E+00
  0.00000000E+00  0.00000000E+00  0.00000000E+00  0.00000000E+00  0.00000000E+00
  0.00000000E+00  1.15091055E+00  0.00000000E+00  0.00000000E+00  0.00000000E+00
 -1.04388860E+00  0.00000000E+00  0.00000000E+00  0.00000000E+00  5.63423729E-02
 -1.67276211E-01  0.00000000E+00  0.00000000E+00  1.06844270E+00 -2.49257879E-01
  0.00000000E+00  0.00000000E+00 -2.74548778E-01  1.24569737E-01  8.08751942E-01
 -1.38592079E-02  4.98019302E-02  0.00000000E+00  0.00000000E+00 -1.55034351E-01
  2.13223757E-01  0.00000000E+00  0.00000000E+00 -2.01106547E-01  1.34495859E+00
 -1.26540322E+00
Total SCF Density                          R   N=          66
  1.96589709E+00  1.22114249E-01  1.33112081E-02  0.00000000E+00  0.00000000E+00
  0.00000000E+00  0.00000000E+00  0.00000000E+00  0.00000000E+00  0.00000000E+00
  1.11202365E-03 -6.47386397E-03  0.00000000E+00  0.00000000E+00  7.47716333E-03
 -4.62169720E-02 -1.11351626E-03  0.00000000E+00  0.00000000E+00 -2.03419511E-03
  1.62586685E-03  0.00000000E+00  0.00000000E+00  0.00000000E+00  0.00000000E+00
  0.00000000E+00  0.00000000E+00  0.00000000E+00  0.00000000E+00  0.00000000E+00
  0.00000000E+00  0.00000000E+00  0.00000000E+00  0.00000000E+00  0.00000000E+00
  0.00000000E+00 -2.21970179E-03 -4.11892425E-04  0.00000000E+00  0.00000000E+00
  3.11850944E-04 -3.19208592E-05  0.00000000E+00  0.00000000E+00  1.56276701E-05
 -1.33416072E-02  2.73604053E-02  0.00000000E+00  0.00000000E+00 -3.22188968E-02
  8.96505191E-03  0.00000000E+00  0.00000000E+00 -1.33394922E-03  1.38867811E-01
 -3.28346804E-02  4.71967766E-02  0.00000000E+00  0.00000000E+00 -5.62802831E-02
  1.58828336E-02  0.00000000E+00  0.00000000E+00 -2.31917919E-03  2.42617145E-01
  4.23924688E-01
Spin SCF Density                           R   N=          66
  1.40210760E-03 -2.65370873E-03  5.38701212E-03  0.00000000E+00  0.00000000E+00
  0.00000000E+00  0.00000000E+00  0.00000000E+00  0.00000000E+00  0.00000000E+00
  3.06704441E-03 -6.34969774E-03  0.00000000E+00  0.00000000E+00  7.47521773E-03
 -1.00873557E-03  1.75772515E-03  0.00000000E+00  0.00000000E+00 -2.07918532E-03
  5.85505512E-04  0.00000000E+00  0.00000000E+00  0.00000000E+00  0.00000000E+00
  0.00000000E+00  0.00000000E+00  0.00000000E+00  0.00000000E+00  0.00000000E+00
  0.00000000E+00  0.00000000E+00  0.00000000E+00  0.00000000E+00  0.00000000E+00
  0.00000000E+00  2.59384031E-04 -2.54442048E-04  0.00000000E+00  0.00000000E+00
  3.09383814E-04 -8.89711946E-05  0.00000000E+00  0.00000000E+00  1.24991986E-05
 -1.39333629E-02  2.73228221E-02  0.00000000E+00  0.00000000E+00 -3.22183079E-02
  8.97866978E-03  0.00000000E+00  0.00000000E+00 -1.33320246E-03  1.38867633E-01
 -2.44789385E-02  4.77274620E-02  0.00000000E+00  0.00000000E+00 -5.62885985E-02
  1.56905458E-02  0.00000000E+00  0.00000000E+00 -2.32972368E-03  2.42619662E-01
  4.23889148E-01
Mulliken Charges                           R   N=           2
  9.29487914E-01  7.05120856E-02
Cartesian Gradient                         R   N=           6
  0.00000000E+00  0.00000000E+00  0.00000000E+00  0.00000000E+00  0.00000000E+00
  0.00000000E+00
Dipole Moment                              R   N=           3
  0.00000000E+00  0.00000000E+00  9.67639571E-01
Quadrupole Moment                          R   N=           6
 -6.75277790E-01 -6.75277790E-01  1.35055558E+00  0.00000000E+00  0.00000000E+00
  0.00000000E+00
