 Li atom - using s & p orbitals
GAUSSIAN             16 MOL ORBITALS      8 PRIMITIVES        1 NUCLEI
  Li   1    (CENTRE  1)   0.00000000  0.00000000  0.00000000  CHARGE =  3.0
CENTRE ASSIGNMENTS    1  1  1  1  1  1  1  1
TYPE ASSIGNMENTS      1  1  2  3  4  2  3  4
EXPONENTS  0.3683820D+02 0.5481720D+01 0.5402050D+00 0.5402050D+00 0.5402050D+00
EXPONENTS  0.1022550D+00 0.1022550D+00 0.1022550D+00
MO    1     MO 0.0        OCC NO =    1.0000000  ORB. ENERGY =   -0.087492
 -0.30531504D-15 -0.10600554D-14  0.39991197D-01 -0.97947771D-02 -0.41886130D-16
  0.77646812D-01 -0.19017516D-01 -0.25371295D-16
MO    2     MO 0.0        OCC NO =    1.0000000  ORB. ENERGY =   -0.080310
  0.70714637D+00  0.24561121D+01  0.18320868D-16  0.38497418D-16 -0.17305156D-15
  0.33930557D-16 -0.89339905D-17 -0.36828125D-16
MO    3     MO 0.0        OCC NO =    0.0000000  ORB. ENERGY =    0.158784
  0.28838403D-16  0.10023619D-15  0.32239120D-02  0.13162944D-01  0.15138710D-02
  0.19298847D-01  0.78795461D-01  0.90622710D-02
MO    4     MO 0.0        OCC NO =    0.0000000  ORB. ENERGY =    0.158784
  0.40244209D-15  0.13983698D-14 -0.36013776D-03 -0.14704102D-02  0.13552000D-01
 -0.21558415D-02 -0.88021079D-02  0.81124412D-01
MO    5     MO 0.0        OCC NO =    0.0000000  ORB. ENERGY =    1.078773
  0.81508614D-17  0.30338145D-16  0.72013502D+00 -0.17637787D+00 -0.31226192D-13
 -0.45609318D-01  0.11170786D-01  0.18214167D-14
MO    6     MO 0.0        OCC NO =    0.0000000  ORB. ENERGY =    1.090891
 -0.46811916D-18  0.20977431D-17  0.24892699D-01  0.10163466D+00  0.73502628D+00
 -0.14738736D-02 -0.60176937D-02 -0.43520223D-01
MO    7     MO 0.0        OCC NO =    0.0000000  ORB. ENERGY =    1.090891
 -0.68679424D-17 -0.24332233D-16  0.17485685D+00  0.71392487D+00 -0.10463867D+00
 -0.10353112D-01 -0.42270828D-01  0.61955581D-02
MO    8     MO 0.0        OCC NO =    0.0000000  ORB. ENERGY =   49.643670
  0.12744250D+02 -0.18218751D+01  0.32321306D-19 -0.66326670D-20  0.19261493D-19
 -0.13692899D-20  0.27370597D-21 -0.10794720D-21
MO    9     MO 0.0        OCC NO =    1.0000000  ORB. ENERGY =   -0.079905
  0.70721812D+00  0.24561018D+01  0.16118026D-15 -0.42765369D-16  0.10743336D-16
 -0.36503816D-16  0.76069278D-17  0.76251671D-18
MO   10     MO 0.0        OCC NO =    0.0000000  ORB. ENERGY =    0.176681
 -0.13273007D-16 -0.45141769D-16 -0.27020760D-03 -0.11032334D-02  0.13733941D-01
 -0.16003729D-02 -0.65341790D-02  0.81342738D-01
MO   11     MO 0.0        OCC NO =    0.0000000  ORB. ENERGY =    0.176681
  0.11721294D-16  0.40788006D-16  0.32671943D-02  0.13339662D-01  0.11358416D-02
  0.19350784D-01  0.79007519D-01  0.67273092D-02
MO   12     MO 0.0        OCC NO =    0.0000000  ORB. ENERGY =    0.212494
  0.23830980D-15  0.82785766D-15  0.14102997D-01 -0.34541530D-02 -0.31767436D-15
  0.79234703D-01 -0.19406427D-01 -0.12570174D-15
MO   13     MO 0.0        OCC NO =    0.0000000  ORB. ENERGY =    1.096631
 -0.99935941D-17 -0.28960670D-16 -0.67218511D-01 -0.27444716D+00  0.68656344D+00
  0.39813985D-02  0.16255693D-01 -0.40665624D-01
MO   14     MO 0.0        OCC NO =    0.0000000  ORB. ENERGY =    1.096631
 -0.63184485D-17 -0.19591297D-16  0.16332793D+00  0.66685331D+00  0.28255897D+00
 -0.96740255D-02 -0.39498179D-01 -0.16736162D-01
MO   15     MO 0.0        OCC NO =    0.0000000  ORB. ENERGY =    1.122821
 -0.23601386D-15 -0.81801187D-15  0.72110669D+00 -0.17661585D+00  0.10602133D-13
 -0.42791345D-01  0.10480599D-01 -0.60399800D-15
MO   16     MO 0.0        OCC NO =    0.0000000  ORB. ENERGY =   49.643827
  0.12744246D+02 -0.18218889D+01  0.14507395D-18 -0.55854542D-19  0.10089878D-18
 -0.63434775D-20  0.26480253D-20 -0.42603648D-20
END DATA
 TOTAL ENERGY =       -3.712905542719 THE VIRIAL(-V/T)=   1.20644380
