LiF (m=1) - FCI(FrozenCore)/6-31g                                               
GAUSSIAN             18 MOL ORBITALS     44 PRIMITIVES        2 NUCLEI
  F    1    (CENTRE  1)   0.00000000  0.00000000  0.79905552  CHARGE =  9.0
  LI   2    (CENTRE  2)   0.00000000  0.00000000 -2.16373626  CHARGE =  3.0
CENTRE ASSIGNMENTS    1  1  1  1  1  1  1  1  1  1  1  1  1  1  1  1  1  1  1  1
CENTRE ASSIGNMENTS    1  1  2  2  2  2  2  2  2  2  2  2  2  2  2  2  2  2  2  2
CENTRE ASSIGNMENTS    2  2  2  2
TYPE ASSIGNMENTS      1  1  1  1  1  1  1  1  1  2  2  2  3  3  3  4  4  4  1  2
TYPE ASSIGNMENTS      3  4  1  1  1  1  1  1  1  1  1  2  2  2  3  3  3  4  4  4
TYPE ASSIGNMENTS      1  2  3  4
EXPONENTS  7.0017131E+03 1.0513661E+03 2.3928569E+02 6.7397445E+01 2.1519957E+01
EXPONENTS  7.4031013E+00 2.0847953E+01 4.8083083E+00 1.3440699E+00 2.0847953E+01
EXPONENTS  4.8083083E+00 1.3440699E+00 2.0847953E+01 4.8083083E+00 1.3440699E+00
EXPONENTS  2.0847953E+01 4.8083083E+00 1.3440699E+00 3.5815139E-01 3.5815139E-01
EXPONENTS  3.5815139E-01 3.5815139E-01 6.4241891E+02 9.6798515E+01 2.2091121E+01
EXPONENTS  6.2010702E+00 1.9351177E+00 6.3673579E-01 2.3249184E+00 6.3243036E-01
EXPONENTS  7.9053435E-02 2.3249184E+00 6.3243036E-01 7.9053435E-02 2.3249184E+00
EXPONENTS  6.3243036E-01 7.9053435E-02 2.3249184E+00 6.3243036E-01 7.9053435E-02
EXPONENTS  3.5961972E-02 3.5961972E-02 3.5961972E-02 3.5961972E-02
MO  1                     OCC NO =   2.00000000 ORB. ENERGY = -26.09321253
  9.88209516E-01  1.82304847E+00  2.95286294E+00  3.89179933E+00  3.34090653E+00
  1.13561215E+00 -1.60798062E-02 -7.22294186E-03  2.14001150E-02  0.00000000E+00
  0.00000000E+00  0.00000000E+00  0.00000000E+00  0.00000000E+00  0.00000000E+00
 -3.06192824E-03 -2.36338605E-03 -1.00328800E-03 -1.90319196E-03  0.00000000E+00
  0.00000000E+00  3.01730257E-04  5.71467452E-05  1.04553693E-04  1.64670336E-04
  2.01879537E-04  1.61245677E-04  5.14713934E-05 -6.69532883E-05 -1.37430511E-04
  1.63766890E-04  0.00000000E+00  0.00000000E+00  0.00000000E+00  0.00000000E+00
  0.00000000E+00  0.00000000E+00  6.43115372E-05  1.99242792E-04  9.92814986E-05
 -1.91719507E-05  0.00000000E+00  0.00000000E+00 -1.27062622E-05
MO  2                     OCC NO =   2.00000000 ORB. ENERGY =  -2.44873373
 -5.87834056E-03 -1.08443600E-02 -1.75650343E-02 -2.31502748E-02 -1.98733022E-02
 -6.75516160E-03 -8.93291608E-03 -4.01260640E-03  1.18885407E-02  0.00000000E+00
  0.00000000E+00  0.00000000E+00  0.00000000E+00  0.00000000E+00  0.00000000E+00
 -4.52106242E-02 -3.48963627E-02 -1.48139581E-02  4.06545009E-03  0.00000000E+00
  0.00000000E+00 -1.59066362E-03  1.94250771E-01  3.55394440E-01  5.59740359E-01
  6.86220282E-01  5.48099406E-01  1.74959358E-01 -8.11781716E-04 -1.66628973E-03
  1.98560773E-03  0.00000000E+00  0.00000000E+00  0.00000000E+00  0.00000000E+00
  0.00000000E+00  0.00000000E+00 -3.74257556E-04 -1.15948279E-03 -5.77763379E-04
 -4.97995612E-04  0.00000000E+00  0.00000000E+00  1.40983203E-04
MO  3                     OCC NO =   1.99007846 ORB. ENERGY =  -1.35724042
 -2.34605376E-01 -4.32799891E-01 -7.01022920E-01 -9.23930633E-01 -7.93146209E-01
 -2.69599423E-01 -3.78076174E-01 -1.69829299E-01  5.03169844E-01  0.00000000E+00
  0.00000000E+00  0.00000000E+00  0.00000000E+00  0.00000000E+00  0.00000000E+00
  3.70852047E-01  2.86246602E-01  1.21515391E-01  1.90237732E-01  0.00000000E+00
  0.00000000E+00  2.05594204E-02 -1.09725135E-02 -2.00749283E-02 -3.16176797E-02
 -3.87620666E-02 -3.09601250E-02 -9.88281234E-03  8.44456554E-04  1.73335917E-03
 -2.06552997E-03  0.00000000E+00  0.00000000E+00  0.00000000E+00  0.00000000E+00
  0.00000000E+00  0.00000000E+00 -1.50352175E-04 -4.65804246E-04 -2.32107486E-04
  1.54609933E-03  0.00000000E+00  0.00000000E+00  4.89775257E-04
MO  4                     OCC NO =   1.97896307 ORB. ENERGY =  -0.47242575
  2.32924910E-02  4.29699769E-02  6.96001531E-02  9.17312568E-02  7.87464946E-02
  2.67668297E-02  3.51669315E-02  1.57967514E-02 -4.68025775E-02  0.00000000E+00
  0.00000000E+00  0.00000000E+00  0.00000000E+00  0.00000000E+00  0.00000000E+00
  2.82263277E+00  2.17868297E+00  9.24879149E-01 -6.39797755E-03  0.00000000E+00
  0.00000000E+00  1.90262081E-01  2.26194360E-02  4.13837318E-02  6.51786925E-02
  7.99065852E-02  6.38231674E-02  2.03730569E-02  8.11808538E-03  1.66634478E-02
 -1.98567334E-02  0.00000000E+00  0.00000000E+00  0.00000000E+00  0.00000000E+00
  0.00000000E+00  0.00000000E+00 -6.04045711E-03 -1.87138668E-02 -9.32500855E-03
  5.87383245E-03  0.00000000E+00  0.00000000E+00  3.07919157E-03
MO  5                     OCC NO =   1.97572222 ORB. ENERGY =  -0.45224246
  0.00000000E+00  0.00000000E+00  0.00000000E+00  0.00000000E+00  0.00000000E+00
  0.00000000E+00  0.00000000E+00  0.00000000E+00  0.00000000E+00  2.82300486E+00
  2.17897017E+00  9.25001072E-01  0.00000000E+00  0.00000000E+00  0.00000000E+00
  0.00000000E+00  0.00000000E+00  0.00000000E+00  0.00000000E+00  1.90294525E-01
  0.00000000E+00  0.00000000E+00  0.00000000E+00  0.00000000E+00  0.00000000E+00
  0.00000000E+00  0.00000000E+00  0.00000000E+00  0.00000000E+00  0.00000000E+00
  0.00000000E+00  6.24695678E-03  1.93536209E-02  9.64379423E-03  0.00000000E+00
  0.00000000E+00  0.00000000E+00  0.00000000E+00  0.00000000E+00  0.00000000E+00
  0.00000000E+00 -2.87185554E-04  0.00000000E+00  0.00000000E+00
MO  6                     OCC NO =   1.97572222 ORB. ENERGY =  -0.45224246
  0.00000000E+00  0.00000000E+00  0.00000000E+00  0.00000000E+00  0.00000000E+00
  0.00000000E+00  0.00000000E+00  0.00000000E+00  0.00000000E+00  0.00000000E+00
  0.00000000E+00  0.00000000E+00  2.82300486E+00  2.17897017E+00  9.25001072E-01
  0.00000000E+00  0.00000000E+00  0.00000000E+00  0.00000000E+00  0.00000000E+00
  1.90294525E-01  0.00000000E+00  0.00000000E+00  0.00000000E+00  0.00000000E+00
  0.00000000E+00  0.00000000E+00  0.00000000E+00  0.00000000E+00  0.00000000E+00
  0.00000000E+00  0.00000000E+00  0.00000000E+00  0.00000000E+00  6.24695678E-03
  1.93536209E-02  9.64379423E-03  0.00000000E+00  0.00000000E+00  0.00000000E+00
  0.00000000E+00  0.00000000E+00 -2.87185554E-04  0.00000000E+00
MO  7                     OCC NO =   0.02259187 ORB. ENERGY =   0.00377986
  0.00000000E+00  0.00000000E+00  0.00000000E+00  0.00000000E+00  0.00000000E+00
  0.00000000E+00  0.00000000E+00  0.00000000E+00  0.00000000E+00  3.98629571E+00
  3.07687018E+00  1.30617126E+00  0.00000000E+00  0.00000000E+00  0.00000000E+00
  0.00000000E+00  0.00000000E+00  0.00000000E+00  0.00000000E+00 -2.88622265E-01
  0.00000000E+00  0.00000000E+00  0.00000000E+00  0.00000000E+00  0.00000000E+00
  0.00000000E+00  0.00000000E+00  0.00000000E+00  0.00000000E+00  0.00000000E+00
  0.00000000E+00 -1.70423248E-02 -5.27986196E-02 -2.63092382E-02  0.00000000E+00
  0.00000000E+00  0.00000000E+00  0.00000000E+00  0.00000000E+00  0.00000000E+00
  0.00000000E+00  8.00102232E-04  0.00000000E+00  0.00000000E+00
MO  8                     OCC NO =   0.02259187 ORB. ENERGY =   0.07369777
  0.00000000E+00  0.00000000E+00  0.00000000E+00  0.00000000E+00  0.00000000E+00
  0.00000000E+00  0.00000000E+00  0.00000000E+00  0.00000000E+00  0.00000000E+00
  0.00000000E+00  0.00000000E+00  3.98629571E+00  3.07687018E+00  1.30617126E+00
  0.00000000E+00  0.00000000E+00  0.00000000E+00  0.00000000E+00  0.00000000E+00
 -2.88622265E-01  0.00000000E+00  0.00000000E+00  0.00000000E+00  0.00000000E+00
  0.00000000E+00  0.00000000E+00  0.00000000E+00  0.00000000E+00  0.00000000E+00
  0.00000000E+00  0.00000000E+00  0.00000000E+00  0.00000000E+00 -1.70423248E-02
 -5.27986196E-02 -2.63092382E-02  0.00000000E+00  0.00000000E+00  0.00000000E+00
  0.00000000E+00  0.00000000E+00  8.00102232E-04  0.00000000E+00
MO  9                     OCC NO =   0.02011521 ORB. ENERGY =   0.07369777
  3.21795135E-02  5.93647520E-02  9.61554118E-02  1.26730422E-01  1.08791451E-01
  3.69794522E-02  1.51938954E-01  6.82499659E-02 -2.02210837E-01  0.00000000E+00
  0.00000000E+00  0.00000000E+00  0.00000000E+00  0.00000000E+00  0.00000000E+00
  4.05838348E+00  3.13251198E+00  1.32979192E+00 -3.49958148E-03  0.00000000E+00
  0.00000000E+00 -3.08067280E-01 -2.79452827E-02 -5.11277151E-02 -8.05253050E-02
 -9.87209454E-02 -7.88506154E-02 -2.51699835E-02 -2.42339659E-02 -4.97434319E-02
  5.92759718E-02  0.00000000E+00  0.00000000E+00  0.00000000E+00  0.00000000E+00
  0.00000000E+00  0.00000000E+00  1.67555204E-02  5.19100743E-02  2.58664814E-02
 -1.64743821E-02  0.00000000E+00  0.00000000E+00 -8.24673448E-03
MO 10                     OCC NO =   0.01082350 ORB. ENERGY =   0.12828268
 -1.24138144E-01 -2.29009991E-01 -3.70936444E-01 -4.88884934E-01 -4.19682190E-01
 -1.42654753E-01 -1.03666210E+00 -4.65661709E-01  1.37966140E+00  0.00000000E+00
  0.00000000E+00  0.00000000E+00  0.00000000E+00  0.00000000E+00  0.00000000E+00
  9.27180691E-01  7.15655541E-01  3.03805050E-01 -4.06238240E-01  0.00000000E+00
  0.00000000E+00 -1.03178351E-01  9.66677362E-03  1.76859921E-02  2.78551448E-02
  3.41493426E-02  2.72758397E-02  8.70674797E-03  8.30908120E-04  1.70554921E-03
 -2.03239067E-03  0.00000000E+00  0.00000000E+00  0.00000000E+00  0.00000000E+00
  0.00000000E+00  0.00000000E+00 -2.55385432E-03 -7.91206506E-03 -3.94253497E-03
 -5.39754654E-03  0.00000000E+00  0.00000000E+00 -1.56970932E-03
MO 11                     OCC NO =   0.00128021 ORB. ENERGY =   0.20549857
  0.00000000E+00  0.00000000E+00  0.00000000E+00  0.00000000E+00  0.00000000E+00
  0.00000000E+00  0.00000000E+00  0.00000000E+00  0.00000000E+00  2.01273359E+00
  1.55355257E+00  6.59503195E-01  0.00000000E+00  0.00000000E+00  0.00000000E+00
  0.00000000E+00  0.00000000E+00  0.00000000E+00  0.00000000E+00 -3.33872719E-01
  0.00000000E+00  0.00000000E+00  0.00000000E+00  0.00000000E+00  0.00000000E+00
  0.00000000E+00  0.00000000E+00  0.00000000E+00  0.00000000E+00  0.00000000E+00
  0.00000000E+00  3.88051225E-02  1.20221679E-01  5.99057476E-02  0.00000000E+00
  0.00000000E+00  0.00000000E+00  0.00000000E+00  0.00000000E+00  0.00000000E+00
  0.00000000E+00 -3.27652320E-03  0.00000000E+00  0.00000000E+00
MO 12                     OCC NO =   0.00128021 ORB. ENERGY =   0.24232956
  0.00000000E+00  0.00000000E+00  0.00000000E+00  0.00000000E+00  0.00000000E+00
  0.00000000E+00  0.00000000E+00  0.00000000E+00  0.00000000E+00  0.00000000E+00
  0.00000000E+00  0.00000000E+00  2.01273359E+00  1.55355257E+00  6.59503195E-01
  0.00000000E+00  0.00000000E+00  0.00000000E+00  0.00000000E+00  0.00000000E+00
 -3.33872719E-01  0.00000000E+00  0.00000000E+00  0.00000000E+00  0.00000000E+00
  0.00000000E+00  0.00000000E+00  0.00000000E+00  0.00000000E+00  0.00000000E+00
  0.00000000E+00  0.00000000E+00  0.00000000E+00  0.00000000E+00  3.88051225E-02
  1.20221679E-01  5.99057476E-02  0.00000000E+00  0.00000000E+00  0.00000000E+00
  0.00000000E+00  0.00000000E+00 -3.27652320E-03  0.00000000E+00
MO 13                     OCC NO =   0.00064425 ORB. ENERGY =   0.24232956
  2.62972376E-05  4.85131321E-05  7.85786184E-05  1.03564649E-04  8.89048440E-05
  3.02197683E-05 -4.50850021E-01 -2.02518826E-01  6.00022297E-01  0.00000000E+00
  0.00000000E+00  0.00000000E+00  0.00000000E+00  0.00000000E+00  0.00000000E+00
 -1.74266874E+00 -1.34509977E+00 -5.71012282E-01 -4.23492153E-01  0.00000000E+00
  0.00000000E+00  3.73376034E-01  3.06945693E-02  5.61577142E-02  8.84474702E-02
  1.08433217E-01  8.66080230E-02  2.76462333E-02 -8.65471342E-02 -1.77649481E-01
  2.11693187E-01  0.00000000E+00  0.00000000E+00  0.00000000E+00  0.00000000E+00
  0.00000000E+00  0.00000000E+00  5.69872633E-02  1.76551548E-01  8.79745867E-02
 -5.85028786E-02  0.00000000E+00  0.00000000E+00 -2.78373718E-02
MO 14                     OCC NO =   0.00015461 ORB. ENERGY =   0.40759832
  5.89356386E-03  1.08724439E-02  1.76105229E-02  2.32102277E-02  1.99247686E-02
  6.77265562E-03  4.70857575E-01  2.11506086E-01 -6.26649730E-01  0.00000000E+00
  0.00000000E+00  0.00000000E+00  0.00000000E+00  0.00000000E+00  0.00000000E+00
 -1.18461618E-01 -9.14360213E-02 -3.88157758E-02  3.75258317E-01  0.00000000E+00
  0.00000000E+00  1.26978668E-02  1.23844038E-02  2.26580735E-02  3.56860907E-02
  4.37497829E-02  3.49439249E-02  1.11544851E-02 -5.87296115E-03 -1.20550323E-02
  1.43651881E-02  0.00000000E+00  0.00000000E+00  0.00000000E+00  0.00000000E+00
  0.00000000E+00  0.00000000E+00 -1.00987485E-02 -3.12868101E-02 -1.55900314E-02
 -4.69486233E-02  0.00000000E+00  0.00000000E+00 -1.67670827E-02
MO 15                     OCC NO =   0.00001424 ORB. ENERGY =   1.70096290
  0.00000000E+00  0.00000000E+00  0.00000000E+00  0.00000000E+00  0.00000000E+00
  0.00000000E+00  0.00000000E+00  0.00000000E+00  0.00000000E+00 -1.83711581E-02
 -1.41799988E-02 -6.01959323E-03  0.00000000E+00  0.00000000E+00  0.00000000E+00
  0.00000000E+00  0.00000000E+00  0.00000000E+00  0.00000000E+00  1.96221173E-02
  0.00000000E+00  0.00000000E+00  0.00000000E+00  0.00000000E+00  0.00000000E+00
  0.00000000E+00  0.00000000E+00  0.00000000E+00  0.00000000E+00  0.00000000E+00
  0.00000000E+00 -4.67857915E-02 -1.44946493E-01 -7.22259753E-02  0.00000000E+00
  0.00000000E+00  0.00000000E+00  0.00000000E+00  0.00000000E+00  0.00000000E+00
  0.00000000E+00  3.73690849E-02  0.00000000E+00  0.00000000E+00
MO 16                     OCC NO =   0.00001424 ORB. ENERGY =   1.70096290
  0.00000000E+00  0.00000000E+00  0.00000000E+00  0.00000000E+00  0.00000000E+00
  0.00000000E+00  0.00000000E+00  0.00000000E+00  0.00000000E+00  0.00000000E+00
  0.00000000E+00  0.00000000E+00 -1.83711581E-02 -1.41799988E-02 -6.01959323E-03
  0.00000000E+00  0.00000000E+00  0.00000000E+00  0.00000000E+00  0.00000000E+00
  1.96221173E-02  0.00000000E+00  0.00000000E+00  0.00000000E+00  0.00000000E+00
  0.00000000E+00  0.00000000E+00  0.00000000E+00  0.00000000E+00  0.00000000E+00
  0.00000000E+00  0.00000000E+00  0.00000000E+00  0.00000000E+00 -4.67857915E-02
 -1.44946493E-01 -7.22259753E-02  0.00000000E+00  0.00000000E+00  0.00000000E+00
  0.00000000E+00  0.00000000E+00  3.73690849E-02  0.00000000E+00
MO 17                     OCC NO =   0.00000329 ORB. ENERGY =   1.74294106
  4.67424744E-03  8.62304956E-03  1.39670908E-02  1.84082755E-02  1.58025434E-02
  5.37146435E-03 -1.09410397E-01 -4.91464217E-02  1.45610902E-01  0.00000000E+00
  0.00000000E+00  0.00000000E+00  0.00000000E+00  0.00000000E+00  0.00000000E+00
 -1.25649014E-01 -9.69836988E-02 -4.11708368E-02 -1.31730821E-01  0.00000000E+00
  0.00000000E+00  4.88951809E-02  2.40570130E-02  4.40138725E-02  6.93211206E-02
  8.49850436E-02  6.78794451E-02  2.16678653E-02  3.03821704E-02  6.23634377E-02
 -7.43144016E-02  0.00000000E+00  0.00000000E+00  0.00000000E+00  0.00000000E+00
  0.00000000E+00  0.00000000E+00  5.23289035E-02  1.62119540E-01  8.07832029E-02
  9.15350800E-03  0.00000000E+00  0.00000000E+00 -1.80630545E-02
MO 18                     OCC NO =   0.00000054 ORB. ENERGY =   2.17434072
 -1.84772118E-03 -3.40867520E-03 -5.52116461E-03 -7.27675653E-03 -6.24671555E-03
 -2.12332971E-03  3.21730404E-02  1.44519155E-02 -4.28181008E-02  0.00000000E+00
  0.00000000E+00  0.00000000E+00  0.00000000E+00  0.00000000E+00  0.00000000E+00
  1.22762551E-01  9.47557477E-02  4.02250426E-02  4.94684051E-02  0.00000000E+00
  0.00000000E+00 -4.56310669E-02 -3.09612114E-02 -5.66455533E-02 -8.92158087E-02
 -1.09375171E-01 -8.73603823E-02 -2.78863947E-02  8.37962250E-02  1.72002875E-01
 -2.04964498E-01  0.00000000E+00  0.00000000E+00  0.00000000E+00  0.00000000E+00
  0.00000000E+00  0.00000000E+00  7.56596743E-03  2.34400318E-02  1.16800285E-02
  1.23444907E-01  0.00000000E+00  0.00000000E+00 -1.42082947E-02
END DATA
ALDET    ENERGY =     -107.0575700853   VIRIAL(-V/T)  =   2.00116785
