LiH+ (m=2) - FCI/6-31g                                                          
GAUSSIAN             11 MOL ORBITALS     26 PRIMITIVES        2 NUCLEI
  LI   1    (CENTRE  1)   0.00000000  0.00000000  0.38581591  CHARGE =  3.0
  H    2    (CENTRE  2)   0.00000000  0.00000000 -2.68587511  CHARGE =  1.0
CENTRE ASSIGNMENTS    1  1  1  1  1  1  1  1  1  1  1  1  1  1  1  1  1  1  1  1
CENTRE ASSIGNMENTS    1  1  2  2  2  2
TYPE ASSIGNMENTS      1  1  1  1  1  1  1  1  1  2  2  2  3  3  3  4  4  4  1  2
TYPE ASSIGNMENTS      3  4  1  1  1  1
EXPONENTS  6.4241891E+02 9.6798515E+01 2.2091121E+01 6.2010702E+00 1.9351177E+00
EXPONENTS  6.3673579E-01 2.3249184E+00 6.3243036E-01 7.9053435E-02 2.3249184E+00
EXPONENTS  6.3243036E-01 7.9053435E-02 2.3249184E+00 6.3243036E-01 7.9053435E-02
EXPONENTS  2.3249184E+00 6.3243036E-01 7.9053435E-02 3.5961972E-02 3.5961972E-02
EXPONENTS  3.5961972E-02 3.5961972E-02 1.8731137E+01 2.8253944E+00 6.4012169E-01
EXPONENTS  1.6127776E-01
MO  1                     OCC NO =   1.99993663 ORB. ENERGY =   0.00000000
  1.94699648E-01  3.56215690E-01  5.61033815E-01  6.87806008E-01  5.49365961E-01
  1.75363656E-01 -7.37868884E-04 -1.51457383E-03  1.80481789E-03  0.00000000E+00
  0.00000000E+00  0.00000000E+00  0.00000000E+00  0.00000000E+00  0.00000000E+00
 -5.21492009E-05 -1.61562806E-04 -8.05057854E-05 -4.27944002E-04  0.00000000E+00
  0.00000000E+00  1.42933408E-05  4.29801561E-04  7.29024796E-04  8.29968963E-04
 -2.75429803E-04
MO  2                     OCC NO =   0.99999481 ORB. ENERGY =   0.00000000
 -1.81718440E-02 -3.32465723E-02 -5.23628011E-02 -6.41947923E-02 -5.12738088E-02
 -1.63671636E-02 -5.54195120E-03 -1.13755905E-02  1.35555420E-02  0.00000000E+00
  0.00000000E+00  0.00000000E+00  0.00000000E+00  0.00000000E+00  0.00000000E+00
 -5.06981401E-03 -1.57067292E-02 -7.82656976E-03 -2.85751238E-03  0.00000000E+00
  0.00000000E+00  1.73900410E-03  9.87156964E-02  1.67440505E-01  1.90625097E-01
  9.99771950E-02
MO  3                     OCC NO =   0.00002399 ORB. ENERGY =   0.00000000
 -2.19468983E-02 -4.01532802E-02 -6.32407516E-02 -7.75307438E-02 -6.19255300E-02
 -1.97673101E-02 -6.03950608E-02 -1.23968879E-01  1.47725549E-01  0.00000000E+00
  0.00000000E+00  0.00000000E+00  0.00000000E+00  0.00000000E+00  0.00000000E+00
  2.76469162E-02  8.56525753E-02  4.26801689E-02 -3.62380668E-02  0.00000000E+00
  0.00000000E+00 -7.88758184E-03 -8.61411682E-02 -1.46111725E-01 -1.66343035E-01
  5.72865406E-02
MO  4                     OCC NO =   0.00001386 ORB. ENERGY =   0.00000000
  0.00000000E+00  0.00000000E+00  0.00000000E+00  0.00000000E+00  0.00000000E+00
  0.00000000E+00  0.00000000E+00  0.00000000E+00  0.00000000E+00  0.00000000E+00
  0.00000000E+00  0.00000000E+00  5.97311270E-02  1.85052279E-01  9.22104503E-02
  0.00000000E+00  0.00000000E+00  0.00000000E+00  0.00000000E+00  0.00000000E+00
 -2.42638324E-02  0.00000000E+00  0.00000000E+00  0.00000000E+00  0.00000000E+00
  0.00000000E+00
MO  5                     OCC NO =   0.00001386 ORB. ENERGY =   0.00000000
  0.00000000E+00  0.00000000E+00  0.00000000E+00  0.00000000E+00  0.00000000E+00
  0.00000000E+00  0.00000000E+00  0.00000000E+00  0.00000000E+00  5.97311270E-02
  1.85052279E-01  9.22104503E-02  0.00000000E+00  0.00000000E+00  0.00000000E+00
  0.00000000E+00  0.00000000E+00  0.00000000E+00  0.00000000E+00 -2.42638324E-02
  0.00000000E+00  0.00000000E+00  0.00000000E+00  0.00000000E+00  0.00000000E+00
  0.00000000E+00
MO  6                     OCC NO =   0.00001352 ORB. ENERGY =   0.00000000
 -3.70284196E-03 -6.77459059E-03 -1.06698680E-02 -1.30808503E-02 -1.04479662E-02
 -3.33510569E-03  4.89323764E-02  1.00440198E-01 -1.19687969E-01  0.00000000E+00
  0.00000000E+00  0.00000000E+00  0.00000000E+00  0.00000000E+00  0.00000000E+00
  7.01423137E-02  2.17307050E-01  1.08282811E-01  1.75308290E-02  0.00000000E+00
  0.00000000E+00 -2.47976565E-02  6.07791930E-02  1.03093015E-01  1.17367754E-01
  1.56523277E-01
MO  7                     OCC NO =   0.00000265 ORB. ENERGY =   0.00000000
  2.55665822E-02  4.67757277E-02  7.36709967E-02  9.03178255E-02  7.21388567E-02
  2.30275163E-02 -6.07800115E-02 -1.24759041E-01  1.48667133E-01  0.00000000E+00
  0.00000000E+00  0.00000000E+00  0.00000000E+00  0.00000000E+00  0.00000000E+00
 -1.04421701E-02 -3.23507604E-02 -1.61201915E-02 -6.57205416E-02  0.00000000E+00
  0.00000000E+00  1.06481365E-02  1.99069780E-01  3.37660025E-01  3.84414003E-01
 -1.81804900E-01
MO  8                     OCC NO =   0.00000032 ORB. ENERGY =   0.00000000
  0.00000000E+00  0.00000000E+00  0.00000000E+00  0.00000000E+00  0.00000000E+00
  0.00000000E+00  0.00000000E+00  0.00000000E+00  0.00000000E+00  0.00000000E+00
  0.00000000E+00  0.00000000E+00 -1.36232511E-02 -4.22060288E-02 -2.10310132E-02
  0.00000000E+00  0.00000000E+00  0.00000000E+00  0.00000000E+00  0.00000000E+00
  2.84298238E-02  0.00000000E+00  0.00000000E+00  0.00000000E+00  0.00000000E+00
  0.00000000E+00
MO  9                     OCC NO =   0.00000032 ORB. ENERGY =   0.00000000
  0.00000000E+00  0.00000000E+00  0.00000000E+00  0.00000000E+00  0.00000000E+00
  0.00000000E+00  0.00000000E+00  0.00000000E+00  0.00000000E+00 -1.36232511E-02
 -4.22060288E-02 -2.10310132E-02  0.00000000E+00  0.00000000E+00  0.00000000E+00
  0.00000000E+00  0.00000000E+00  0.00000000E+00  0.00000000E+00  2.84298238E-02
  0.00000000E+00  0.00000000E+00  0.00000000E+00  0.00000000E+00  0.00000000E+00
  0.00000000E+00
MO 10                     OCC NO =   0.00000003 ORB. ENERGY =   0.00000000
 -7.47097535E-03 -1.36686361E-02 -2.15278756E-02 -2.63923525E-02 -2.10801591E-02
 -6.72901859E-03  2.64101397E-02  5.42103173E-02 -6.45988649E-02  0.00000000E+00
  0.00000000E+00  0.00000000E+00  0.00000000E+00  0.00000000E+00  0.00000000E+00
 -1.55272380E-02 -4.81047476E-02 -2.39703097E-02  1.00087315E-01  0.00000000E+00
  0.00000000E+00 -6.80350897E-03  1.74700399E-01  2.96324942E-01  3.37355473E-01
 -2.95380085E-01
MO 11                     OCC NO =   0.00000002 ORB. ENERGY =   0.00000000
  2.43320568E-02  4.45170831E-02  7.01136690E-02  8.59566777E-02  6.86555108E-02
  2.19155940E-02 -6.31265156E-02 -1.29575553E-01  1.54406652E-01  0.00000000E+00
  0.00000000E+00  0.00000000E+00  0.00000000E+00  0.00000000E+00  0.00000000E+00
 -2.97025023E-03 -9.20209616E-03 -4.58534980E-03 -6.20329998E-02  0.00000000E+00
  0.00000000E+00 -2.40387720E-02  6.14125637E-02  1.04167332E-01  1.18590825E-01
 -1.81374504E-01
END DATA
ALDET    ENERGY =       -7.7214366383   VIRIAL(-V/T)  =   1.99005882
