O atom in a box                         
   1.00000000000000     
    10.000000    0.000000    0.000000
     0.000000   10.000000    0.000000
     0.000000    0.000000   10.000000
   O 
     1
Direct
  0.000000  0.000000  0.000000
 
    1    4    2
 0.35046350435E+01 0.213732132354E+01 -.65465465497E+01 0.65432168471E+04 0.65136461711E+01
 0.40654654651E+04 -.546876467887E+01 -.79846567984E+02
 0.5
