Title Card Required                                                     
FOpt      RB3LYP                                                      4-21G               
Number of atoms                            I                6
Info1-9                                    I   N=           9
          15          15           0           0           0         110
           2          18        -502
Full Title                                 C   N=           2
Title Card Required     
Route                                      C   N=           2
#p b3lyp/4-21g opt      
Charge                                     I                0
Multiplicity                               I                1
Number of electrons                        I               18
Number of alpha electrons                  I                9
Number of beta electrons                   I                9
Number of basis functions                  I               26
Number of independent functions            I               26
Number of point charges in /Mol/           I                0
Number of translation vectors              I                0
Atomic numbers                             I   N=           6
           6           1           1           1           8           1
Nuclear charges                            R   N=           6
  6.00000000E+00  1.00000000E+00  1.00000000E+00  1.00000000E+00  8.00000000E+00
  1.00000000E+00
Current cartesian coordinates              R   N=          18
  1.29142664E+00 -3.76163116E-02  4.91942708E-06  2.04184703E+00  1.88592120E+00
  1.14286242E-05  2.02343964E+00 -1.01536136E+00 -1.68528097E+00  2.02342733E+00
 -1.01536811E+00  1.68529227E+00 -1.45702194E+00  2.34413472E-01 -4.34606844E-06
 -2.18109828E+00 -1.50480163E+00 -1.74758999E-05
Number of symbols in /Mol/                 I                0
Int Atom Types                             I   N=           6
           0           0           0           0           0           0
Force Field                                I                0
Atom Types                                 C   N=           6
                                                            
            
MM charges                                 R   N=           6
  0.00000000E+00  0.00000000E+00  0.00000000E+00  0.00000000E+00  0.00000000E+00
  0.00000000E+00
Integer atomic weights                     I   N=           6
          12           1           1           1          16           1
Real atomic weights                        R   N=           6
  1.20000000E+01  1.00782504E+00  1.00782504E+00  1.00782504E+00  1.59949146E+01
  1.00782504E+00
Atom fragment info                         I   N=           6
           0           0           0           0           0           0
Atom residue num                           I   N=           6
           0           0           0           0           0           0
Nuclear spins                              I   N=           6
           0           1           1           1           0           1
Nuclear ZEff                               R   N=           6
 -3.60000000E+00 -1.00000000E+00 -1.00000000E+00 -1.00000000E+00 -5.60000000E+00
 -1.00000000E+00
Nuclear ZNuc                               R   N=           6
  6.00000000E+00  1.00000000E+00  1.00000000E+00  1.00000000E+00  8.00000000E+00
  1.00000000E+00
Nuclear QMom                               R   N=           6
  0.00000000E+00  0.00000000E+00  0.00000000E+00  0.00000000E+00  0.00000000E+00
  0.00000000E+00
Nuclear GFac                               R   N=           6
  0.00000000E+00  2.79284600E+00  2.79284600E+00  2.79284600E+00  0.00000000E+00
  2.79284600E+00
MicOpt                                     I   N=           6
          -1          -1          -1          -1          -1          -1
Number of residues                         I                0
Number of secondary structures             I                0
Redundant internal dimensions              I   N=           4
          15           5           7           3
Redundant internal coordinate indices      I   N=          60
           1           2           0           0           1           3
           0           0           1           4           0           0
           1           5           0           0           5           6
           0           0           2           1           3           0
           2           1           4           0           2           1
           5           0           3           1           4           0
           3           1           5           0           4           1
           5           0           1           5           6           0
           2           1           5           6           3           1
           5           6           4           1           5           6
Redundant internal coordinates             R   N=          15
  2.06473420E+00  2.08134979E+00  2.08134982E+00  2.76187795E+00  1.88392031E+00
  1.88579801E+00  1.88579808E+00  1.84410659E+00  1.88731041E+00  1.97823342E+00
  1.97823327E+00  1.86664067E+00  3.14158872E+00  1.07987650E+00 -1.07988436E+00
ZRed-IntVec                                I   N=          15
           0           0           0           0           0           0
           0           0           0           0           0           0
           0           0           0
ZRed-FPVec                                 R   N=          15
  0.00000000E+00  0.00000000E+00  0.00000000E+00  0.00000000E+00  0.00000000E+00
  0.00000000E+00  0.00000000E+00  0.00000000E+00  0.00000000E+00  0.00000000E+00
  0.00000000E+00  0.00000000E+00  0.00000000E+00  0.00000000E+00  0.00000000E+00
ZRed-Constraint1                           R   N=          15
  2.07612518E+00  2.06811103E+00  2.06810999E+00  2.70941457E+00  1.84630518E+00
  1.92726210E+00  1.92726255E+00  1.80786489E+00  1.94280113E+00  1.92720351E+00
  1.92720274E+00  1.91727951E+00  3.14158172E+00  1.07805491E+00 -1.07807662E+00
ZRed-Constraint2                           R   N=          15
  0.00000000E+00  0.00000000E+00  0.00000000E+00  0.00000000E+00  0.00000000E+00
  0.00000000E+00  0.00000000E+00  0.00000000E+00  0.00000000E+00  0.00000000E+00
  0.00000000E+00  0.00000000E+00  0.00000000E+00  0.00000000E+00  0.00000000E+00
SymInf integers                            I   N=          26
           1           1           1           1           1           0
           0           0           0           0           0           0
           0           0           0           0           0           0
           0           0           0           0           0           0
           0           0
RotTr to input orientation                 R   N=          12
  9.99911369E-01 -1.33136558E-02  0.00000000E+00  1.33136558E-02  9.99911369E-01
  0.00000000E+00  0.00000000E+00  0.00000000E+00  1.00000000E+00 -4.50315259E-02
  1.71044947E-02 -2.23070803E-06
Num ILSW                                   I              100
ILSW                                       I   N=         100
           0           1           0           1           2           0
           0           0           0           0         402          -1
           5           0           0           0           2           0
           0           0           0           0           1           0
           1           0           0           0           0           0
           0           0      100000           0          -1           0
           0           0           0           0           0           0
           0           0           0           1           0           0
           0 -2000000000           1           0           0           0
           0           0           4          52           0           0
           0           0           5           0           0           0
           0           0           0           6           0           1
           0           0           0           0           0           0
           0           0           0           0           0           0
           0           0           0           0           0           0
           0           0           0           0           0           0
           0           0           0           0
Num RLSW                                   I               52
RLSW                                       R   N=          52
  8.00000000E-01  7.20000000E-01  1.00000000E+00  8.10000000E-01  2.00000000E-01
  0.00000000E+00  0.00000000E+00  1.00000000E+00  0.00000000E+00  0.00000000E+00
  0.00000000E+00  0.00000000E+00  1.00000000E+00  0.00000000E+00  0.00000000E+00
  0.00000000E+00  0.00000000E+00  1.00000000E+00  0.00000000E+00  0.00000000E+00
  0.00000000E+00  0.00000000E+00  1.00000000E+00  0.00000000E+00  0.00000000E+00
  0.00000000E+00  0.00000000E+00  1.00000000E+00  0.00000000E+00  0.00000000E+00
  0.00000000E+00  0.00000000E+00  1.00000000E+00  0.00000000E+00  0.00000000E+00
  0.00000000E+00  0.00000000E+00  0.00000000E+00  1.00000000E+00  1.00000000E+00
  0.00000000E+00  1.00000000E+00  0.00000000E+00  0.00000000E+00  0.00000000E+00
  0.00000000E+00  0.00000000E+00  0.00000000E+00  0.00000000E+00  0.00000000E+00
  0.00000000E+00  0.00000000E+00
MxBond                                     I                4
NBond                                      I   N=           6
           4           1           1           1           2           1
IBond                                      I   N=          24
           2           3           4           5           1           0
           0           0           1           0           0           0
           1           0           0           0           1           6
           0           0           5           0           0           0
RBond                                      R   N=          24
  1.00000000E+00  1.00000000E+00  1.00000000E+00  1.00000000E+00  1.00000000E+00
  0.00000000E+00  0.00000000E+00  0.00000000E+00  1.00000000E+00  0.00000000E+00
  0.00000000E+00  0.00000000E+00  1.00000000E+00  0.00000000E+00  0.00000000E+00
  0.00000000E+00  1.00000000E+00  1.00000000E+00  0.00000000E+00  0.00000000E+00
  1.00000000E+00  0.00000000E+00  0.00000000E+00  0.00000000E+00
Virial Ratio                               R      2.006139047617585E+00
SCF Energy                                 R     -1.154471415339684E+02
Total Energy                               R     -1.154471415339684E+02
RMS Force                                  R      1.839385484847592E-04
RMS Density                                R      5.646278054844847E-09
Job Status                                 I                1
Nuclear derivative order                   I                1
External E-field                           R   N=          35
  0.00000000E+00  0.00000000E+00  0.00000000E+00  0.00000000E+00  0.00000000E+00
  0.00000000E+00  0.00000000E+00  0.00000000E+00  0.00000000E+00  0.00000000E+00
  0.00000000E+00  0.00000000E+00  0.00000000E+00  0.00000000E+00  0.00000000E+00
  0.00000000E+00  0.00000000E+00  0.00000000E+00  0.00000000E+00  0.00000000E+00
  0.00000000E+00  0.00000000E+00  0.00000000E+00  0.00000000E+00  0.00000000E+00
  0.00000000E+00  0.00000000E+00  0.00000000E+00  0.00000000E+00  0.00000000E+00
  0.00000000E+00  0.00000000E+00  0.00000000E+00  0.00000000E+00  0.00000000E+00
IOpCl                                      I                0
IROHF                                      I                0
Grdnt Energy                               R     -1.154471415339684E+02
Grdnt NVar                                 I               15
Grdnt IGetFC                               I                0
Internal Forces                            R   N=          15
 -9.69501969E-05 -1.02237375E-04 -1.02240625E-04  2.99508957E-04 -4.94381025E-05
  1.90006548E-05  1.89968432E-05 -2.16590951E-04  1.57106661E-05  7.71623828E-05
  7.71711808E-05 -2.38749126E-04  1.67538416E-08  7.29683527E-05 -7.29346322E-05
Internal Force Constants                   R   N=         120
  3.38999103E-01  9.41382806E-04  3.42656223E-01  9.41436291E-04 -4.37671800E-04
  3.42656777E-01  1.37902497E-03 -5.59825072E-04 -5.59941137E-04  3.95670978E-01
  1.26905607E-02  4.94831799E-03  4.94821293E-03 -5.44738747E-02  4.75471183E-01
  3.48987546E-03  2.17530491E-03  2.17529952E-03 -2.18534240E-02 -1.51885429E-02
  1.55516695E-01  3.48979896E-03  2.17529697E-03  2.17529158E-03 -2.18527704E-02
 -1.51875150E-02 -4.48301402E-03  1.55517277E-01 -7.80115316E-04 -2.75794513E-04
 -2.75731731E-04  2.04054011E-02  1.65139585E-02 -7.68485116E-04 -7.68550859E-04
  1.69550461E-01  4.71646397E-03  5.58433731E-03  5.58451899E-03 -1.99318193E-02
  8.51591742E-03  1.97141443E-03  1.97156516E-03  1.66445084E-03  1.65020486E-01
 -5.51655108E-03 -3.37843303E-03 -3.37846537E-03  2.25182000E-02  6.89934215E-03
  2.97388051E-03  2.97356078E-03 -3.65210255E-03 -5.97763566E-03  1.62833912E-01
 -5.51649416E-03 -3.37838608E-03 -3.37841842E-03  2.25175381E-02  6.89829405E-03
  2.97357112E-03  2.97325140E-03 -3.65200687E-03 -5.97794109E-03  2.83430992E-03
  1.62834708E-01  5.96155131E-04  5.33735205E-03  5.33774536E-03  3.41588680E-02
  3.68321040E-02 -4.35183036E-03 -4.35185389E-03  2.79748959E-02 -5.86708644E-03
 -9.13548463E-03 -9.13569729E-03  2.17569577E-01  2.23165804E-07  1.90923414E-07
  1.90923604E-07 -1.93270065E-06 -2.10366492E-06 -5.89368214E-07 -5.89339751E-07
  1.12133815E-07 -4.32061476E-07  7.29904467E-07  7.29872109E-07 -7.43292283E-07
  1.24519444E-02 -2.44417862E-03 -2.75922326E-03 -2.75934012E-03  3.36327980E-03
 -1.99203113E-02 -6.34732626E-03 -6.34725702E-03 -1.49590394E-03 -7.14615601E-03
  9.67375432E-03  9.67377687E-03 -2.13736969E-03 -1.55645240E-07  1.62117252E-02
  2.44455197E-03  2.75948415E-03  2.75960101E-03 -3.36702697E-03  1.99154035E-02
  6.34595712E-03  6.34588794E-03  1.49607735E-03  7.14509788E-03 -9.67202012E-03
 -9.67204273E-03  2.13596100E-03  1.55498653E-07 -3.75997110E-03  1.62121055E-02
Mulliken Charges                           R   N=           6
 -3.31573247E-01  2.07962779E-01  1.66367700E-01  1.66367740E-01 -5.38293747E-01
  3.29168775E-01
Optimization MaxStp                        I              100
Optimization MaxJob                        I                1
Optimization Job offset                    I                0
Optimization Num results per geometry      I                2
Optimization Num geometry variables        I               18
Optimization Reference Energy              R     -1.150000000000000E+02
Opt point       1 Results for each geome   R   N=           8
 -4.44719825E-01  0.00000000E+00 -4.47008730E-01  0.00000000E+00 -4.47137318E-01
  0.00000000E+00 -4.47141534E-01  0.00000000E+00
Opt point       1 Geometries               R   N=          72
  1.28431047E+00 -4.70556072E-02  3.88443703E-06  1.97831044E+00  1.90964054E+00
  7.66388928E-06  1.90705085E+00 -1.03367215E+00 -1.70758666E+00  1.90704140E+00
 -1.03367593E+00  1.70759443E+00 -1.41052970E+00  2.33593198E-01 -1.78474134E-06
 -2.21402796E+00 -1.42870441E+00 -2.44614548E-05  1.29165027E+00 -4.01456338E-02
  4.38122733E-06  2.04637872E+00  1.88004846E+00  9.13803013E-06  2.05289141E+00
 -1.00225460E+00 -1.67885345E+00  2.05288172E+00 -1.00225966E+00  1.67886364E+00
 -1.46159124E+00  2.31705143E-01 -2.92047763E-06 -2.20932353E+00 -1.48830154E+00
 -2.22541433E-05  1.28945657E+00 -3.73773702E-02  4.57920688E-06  2.03861096E+00
  1.88689215E+00  1.02397893E-05  2.02601985E+00 -1.01332340E+00 -1.68454526E+00
  2.02600885E+00 -1.01332932E+00  1.68455582E+00 -1.45680367E+00  2.33816662E-01
 -3.55202482E-06 -2.17294969E+00 -1.50650851E+00 -1.98579140E-05  1.29142664E+00
 -3.76163116E-02  4.91942708E-06  2.04184703E+00  1.88592120E+00  1.14286242E-05
  2.02343964E+00 -1.01536136E+00 -1.68528097E+00  2.02342733E+00 -1.01536811E+00
  1.68529227E+00 -1.45702194E+00  2.34413472E-01 -4.34606844E-06 -2.18109828E+00
 -1.50480163E+00 -1.74758999E-05
Opt point       1 Gradient at each geome   R   N=          72
  3.45077500E-03 -3.18084413E-03  2.71008016E-07 -5.38275187E-03  6.62763922E-03
 -4.11077965E-08 -1.05144758E-02  1.28624390E-03  1.68372643E-04 -1.05146370E-02
  1.28644275E-03 -1.68678522E-04  1.90973265E-02 -2.11858401E-02 -3.75448022E-08
  3.86376317E-03  1.51663583E-02  1.13523748E-07 -8.56774232E-04 -5.32804447E-04
  3.20305086E-08  1.23390233E-03 -1.36331214E-03 -2.63412420E-08  1.82141386E-03
  1.06882587E-03  1.12357731E-03  1.82141959E-03  1.06886122E-03 -1.12356857E-03
 -3.64188046E-03 -4.03803814E-03  8.46594565E-09 -3.78081086E-04  3.79646763E-03
 -2.28946405E-08 -1.61557586E-03 -3.23406998E-04 -1.83952802E-08  6.17518338E-05
  8.19019202E-05 -1.73195156E-08  2.39635907E-04 -3.54868974E-05  5.31410217E-06
  2.39630056E-04 -3.54671751E-05 -5.29830710E-06  3.41709425E-04 -3.60209819E-04
  5.60923509E-08  7.32848634E-04  6.72668970E-04 -3.61726245E-08 -4.31769918E-04
  3.55987203E-04 -1.16157618E-08  1.41782022E-04  4.88003433E-05 -9.46567233E-09
  6.34482859E-06 -8.23127494E-05 -7.57160536E-05  6.34211327E-06 -8.23009034E-05
  7.57277538E-05  4.13198613E-04 -2.43020479E-04  3.78600751E-08 -1.35897659E-04
  2.84658574E-06 -2.84788942E-08
Optimization Number of geometries          I   N=           1
           4
ONIOM Charges                              I   N=          16
           0           0           0           0           0           0
           0           0           0           0           0           0
           0           0           0           0
ONIOM Multiplicities                       I   N=          16
           1           0           0           0           0           0
           0           0           0           0           0           0
           0           0           0           0
Atom Layers                                I   N=           6
           1           1           1           1           1           1
Atom Modifiers                             I   N=           6
           0           0           0           0           0           0
Int Atom Modified Types                    I   N=           6
           0           0           0           0           0           0
Force Field                                I                0
Atom Modified Types                        C   N=           6
                                                            
            
Link Atoms                                 I   N=           6
           0           0           0           0           0           0
Atom Modified MM Charges                   R   N=           6
  0.00000000E+00  0.00000000E+00  0.00000000E+00  0.00000000E+00  0.00000000E+00
  0.00000000E+00
Link Distances                             R   N=          24
  0.00000000E+00  0.00000000E+00  0.00000000E+00  0.00000000E+00  0.00000000E+00
  0.00000000E+00  0.00000000E+00  0.00000000E+00  0.00000000E+00  0.00000000E+00
  0.00000000E+00  0.00000000E+00  0.00000000E+00  0.00000000E+00  0.00000000E+00
  0.00000000E+00  0.00000000E+00  0.00000000E+00  0.00000000E+00  0.00000000E+00
  0.00000000E+00  0.00000000E+00  0.00000000E+00  0.00000000E+00
Cartesian Gradient                         R   N=          18
 -4.31769918E-04  3.55987203E-04 -1.16157618E-08  1.41782022E-04  4.88003433E-05
 -9.46567233E-09  6.34482859E-06 -8.23127494E-05 -7.57160536E-05  6.34211327E-06
 -8.23009034E-05  7.57277538E-05  4.13198613E-04 -2.43020479E-04  3.78600751E-08
 -1.35897659E-04  2.84658574E-06 -2.84788942E-08
Nonadiabatic coupling                      R   N=          18
  0.00000000E+00  0.00000000E+00  0.00000000E+00  0.00000000E+00  0.00000000E+00
  0.00000000E+00  0.00000000E+00  0.00000000E+00  0.00000000E+00  0.00000000E+00
  0.00000000E+00  0.00000000E+00  0.00000000E+00  0.00000000E+00  0.00000000E+00
  0.00000000E+00  0.00000000E+00  0.00000000E+00
Dipole Moment                              R   N=           3
  3.48073773E-01 -6.28299101E-01 -2.69999176E-06
Quadrupole Moment                          R   N=           6
  1.22189221E-01  5.08938210E-01 -6.31127431E-01  1.68950304E+00  1.21207957E-05
  1.28796221E-05
QEq coupling tensors                       R   N=          36
 -3.08536649E-01  2.74628507E-02  1.72838333E-01 -1.48482349E-06  1.19781211E-07
  1.35698316E-01  8.40461574E-02 -1.51280509E-01 -2.39892050E-01 -5.47587332E-07
 -1.34465645E-06  1.55845893E-01  8.68581877E-02  6.70999991E-02  5.14047467E-02
  1.16353331E-01 -1.68360843E-01 -1.38262934E-01  8.68599180E-02  6.70992565E-02
  5.14033807E-02 -1.16351422E-01  1.68362056E-01 -1.38263299E-01 -1.50514418E+00
 -6.22972785E-01 -6.22804817E-01 -1.82012213E-05 -1.84712839E-05  2.12794900E+00
  9.33944213E-02 -2.52930409E-01 -3.52726299E-01 -2.14273080E-06 -4.62202653E-06
  2.59331878E-01
Gaussian Version                           C   N=           2
AS64L-G16RevC.02        
