Title Card Required                                                     
Scan      RB3LYP                                                      4-21G               
Number of atoms                            I                6
Info1-9                                    I   N=           9
          17          17           0           0           0         110
           8          18        -502
Full Title                                 C   N=           2
Title Card Required     
Route                                      C   N=           3
#p b3lyp/4-21g opt=(modredundant)   
Charge                                     I                0
Multiplicity                               I                1
Number of electrons                        I               18
Number of alpha electrons                  I                9
Number of beta electrons                   I                9
Number of basis functions                  I               26
Number of independent functions            I               26
Number of point charges in /Mol/           I                0
Number of translation vectors              I                0
Atomic numbers                             I   N=           6
           6           1           1           1           8           1
Nuclear charges                            R   N=           6
  6.00000000E+00  1.00000000E+00  1.00000000E+00  1.00000000E+00  8.00000000E+00
  1.00000000E+00
Current cartesian coordinates              R   N=          18
  1.27432818E+00 -9.22231193E-02  5.25528165E-06  2.18630023E+00  2.08399932E+00
  1.41205789E-05  2.00889560E+00 -1.04088023E+00 -1.69530685E+00  2.00888120E+00
 -1.04088803E+00  1.69531923E+00 -1.45326546E+00  2.52470914E-01 -5.49863595E-06
 -2.22392240E+00 -1.46865966E+00 -1.40494230E-05
Number of symbols in /Mol/                 I                0
Int Atom Types                             I   N=           6
           0           0           0           0           0           0
Force Field                                I                0
Atom Types                                 C   N=           6
                                                            
            
MM charges                                 R   N=           6
  0.00000000E+00  0.00000000E+00  0.00000000E+00  0.00000000E+00  0.00000000E+00
  0.00000000E+00
Integer atomic weights                     I   N=           6
          12           1           1           1          16           1
Real atomic weights                        R   N=           6
  1.20000000E+01  1.00782504E+00  1.00782504E+00  1.00782504E+00  1.59949146E+01
  1.00782504E+00
Atom fragment info                         I   N=           6
           0           0           0           0           0           0
Atom residue num                           I   N=           6
           0           0           0           0           0           0
Nuclear spins                              I   N=           6
           0           1           1           1           0           1
Nuclear ZEff                               R   N=           6
 -3.60000000E+00 -1.00000000E+00 -1.00000000E+00 -1.00000000E+00 -5.60000000E+00
 -1.00000000E+00
Nuclear ZNuc                               R   N=           6
  6.00000000E+00  1.00000000E+00  1.00000000E+00  1.00000000E+00  8.00000000E+00
  1.00000000E+00
Nuclear QMom                               R   N=           6
  0.00000000E+00  0.00000000E+00  0.00000000E+00  0.00000000E+00  0.00000000E+00
  0.00000000E+00
Nuclear GFac                               R   N=           6
  0.00000000E+00  2.79284600E+00  2.79284600E+00  2.79284600E+00  0.00000000E+00
  2.79284600E+00
MicOpt                                     I   N=           6
          -1          -1          -1          -1          -1          -1
Number of residues                         I                0
Number of secondary structures             I                0
Redundant internal dimensions              I   N=           4
          15           5           7           3
Redundant internal coordinate indices      I   N=          60
           1           2           0           0           1           3
           0           0           1           4           0           0
           1           5           0           0           5           6
           0           0           2           1           3           0
           2           1           4           0           2           1
           5           0           3           1           4           0
           3           1           5           0           4           1
           5           0           1           5           6           0
           2           1           5           6           3           1
           5           6           4           1           5           6
Redundant internal coordinates             R   N=          15
  2.35958410E+00  2.07692627E+00  2.07692627E+00  2.74928737E+00  1.88578964E+00
  1.85935670E+00  1.85935671E+00  1.84192009E+00  1.90981594E+00  1.99122601E+00
  1.99122598E+00  1.86608102E+00  3.14159192E+00  1.10647677E+00 -1.10647825E+00
ZRed-IntVec                                I   N=          15
       -1004           0           0           0           0           0
           0           0           0           0           0           0
           0           0           0
ZRed-FPVec                                 R   N=          15
  9.44863062E-02  0.00000000E+00  0.00000000E+00  0.00000000E+00  0.00000000E+00
  0.00000000E+00  0.00000000E+00  0.00000000E+00  0.00000000E+00  0.00000000E+00
  0.00000000E+00  0.00000000E+00  0.00000000E+00  0.00000000E+00  0.00000000E+00
ZRed-Constraint1                           R   N=          15
  2.35958410E+00  2.06811103E+00  2.06810999E+00  2.70941457E+00  1.84630518E+00
  1.92726210E+00  1.92726255E+00  1.80786489E+00  1.94280113E+00  1.92720351E+00
  1.92720274E+00  1.91727951E+00  3.14158172E+00  1.07805491E+00 -1.07807662E+00
ZRed-Constraint2                           R   N=          15
  2.07612518E+00  0.00000000E+00  0.00000000E+00  0.00000000E+00  0.00000000E+00
  0.00000000E+00  0.00000000E+00  0.00000000E+00  0.00000000E+00  0.00000000E+00
  0.00000000E+00  0.00000000E+00  0.00000000E+00  0.00000000E+00  0.00000000E+00
SymInf integers                            I   N=          26
           1           1           1           1           1           0
           0           0           0           0           0           0
           0           0           0           0           0           0
           0           0           0           0           0           0
           0           0
RotTr to input orientation                 R   N=          12
  9.99999965E-01 -2.63465584E-04  0.00000000E+00  2.63465584E-04  9.99999965E-01
  0.00000000E+00  0.00000000E+00  0.00000000E+00  1.00000000E+00 -5.81192870E-02
 -1.54491233E-02 -3.29549132E-06
Virial Ratio                               R      2.007444851503541E+00
SCF Energy                                 R     -1.154362149811181E+02
Total Energy                               R     -1.154362149811181E+02
RMS Force                                  R      2.110340357730399E-02
RMS Density                                R      2.435734597918782E-09
Job Status                                 I                1
Nuclear derivative order                   I                1
Grdnt Energy                               R     -1.154362149811181E+02
Grdnt NVar                                 I               15
Grdnt IGetFC                               I                0
Internal Forces                            R   N=          15
 -6.33279412E-02  3.60894367E-06  3.60928355E-06 -5.00649538E-05  3.45747158E-05
 -2.00978850E-05 -2.00985408E-05  1.17095218E-05 -5.47873328E-06  1.46300225E-05
  1.46311816E-05  2.72219096E-05  2.55553504E-09  9.19196492E-06 -9.18703361E-06
Internal Force Constants                   R   N=         120
  3.44745482E-01  4.13894508E-03  3.40748934E-01  4.13900837E-03 -2.34497864E-03
  3.40749452E-01  2.98094910E-03 -5.64928946E-03 -5.64945199E-03  3.86276793E-01
  1.18646754E-02  7.57039068E-03  7.57026523E-03 -4.59155421E-02  4.68064120E-01
  1.01659974E-02 -3.69894009E-03 -3.69898601E-03 -3.58815160E-02 -6.30275750E-03
  1.37571416E-01  1.01659121E-02 -3.69902599E-03 -3.69907190E-03 -3.58810783E-02
 -6.30165418E-03 -2.24285048E-02  1.37571574E-01  3.82076067E-03 -1.21581235E-03
 -1.21574278E-03  1.62552643E-02  1.79957356E-02 -5.38662403E-03 -5.38670997E-03
  1.70380813E-01 -1.32146525E-04  1.11272798E-02  1.11274843E-02 -6.10286115E-03
  1.03408720E-03  1.98554120E-02  1.98557253E-02  6.14487808E-03  1.48182021E-01
 -1.09672902E-02 -7.68946467E-04 -7.68958880E-04  2.93793361E-02  2.25345072E-03
  1.15174453E-02  1.15172402E-02 -2.23500470E-03 -1.51446103E-02  1.59528745E-01
 -1.09672275E-02 -7.68799595E-04 -7.68812008E-04  2.93789553E-02  2.25232295E-03
  1.15173940E-02  1.15171889E-02 -2.23489537E-03 -1.51450968E-02 -4.71000059E-04
  1.59529255E-01  7.12897399E-03  5.02670596E-03  5.02709089E-03  3.37122992E-02
  3.66852996E-02 -6.78119032E-03 -6.78125040E-03  2.85730108E-02 -2.53398210E-03
 -8.96663725E-03 -8.96680649E-03  2.18330107E-01  2.28268871E-07  3.90615404E-07
  3.90616002E-07 -1.36487441E-06 -2.26918705E-06 -6.63738731E-08 -6.63441807E-08
  1.34179216E-07 -7.96559579E-07  4.42241347E-07  4.42207656E-07 -6.65247908E-07
  1.24519444E-02 -1.09475193E-02 -6.31083941E-03 -6.31096674E-03 -1.37187123E-03
 -2.27918532E-02 -1.41391366E-02 -1.41389766E-02 -6.67965524E-03 -2.03969596E-03
  1.70527611E-02  1.70526331E-02 -1.11257660E-02 -4.34049458E-07  3.09445495E-02
  1.09479252E-02  6.31156213E-03  6.31168945E-03  1.36938852E-03  2.27865755E-02
  1.41389679E-02  1.41388079E-02  6.67991270E-03  2.03776366E-03 -1.70516855E-02
 -1.70515575E-02  1.11245700E-02  4.33895711E-07 -1.84933862E-02  3.09461114E-02
Mulliken Charges                           R   N=           6
 -2.97007215E-01  1.58325737E-01  1.71751401E-01  1.71751411E-01 -5.35338281E-01
  3.30516947E-01
Number of scan variables                   I               15
Scan number of steps                       I   N=          15
           3           0           0           0           0           0
           0           0           0           0           0           0
           0           0           0
Scan initial values                        R   N=          15
  2.07612518E+00  2.06811103E+00  2.06810999E+00  2.70941457E+00  1.84630518E+00
  1.92726210E+00  1.92726255E+00  1.80786489E+00  1.94280113E+00  1.92720351E+00
  1.92720274E+00  1.91727951E+00  3.14158172E+00  1.07805491E+00 -1.07807662E+00
Scan step sizes                            R   N=          15
  9.44863062E-02  0.00000000E+00  0.00000000E+00  0.00000000E+00  0.00000000E+00
  0.00000000E+00  0.00000000E+00  0.00000000E+00  0.00000000E+00  0.00000000E+00
  0.00000000E+00  0.00000000E+00  0.00000000E+00  0.00000000E+00  0.00000000E+00
Scan variable units                        I   N=          15
           1           1           1           1           1           2
           2           2           2           2           2           2
           2           2           2
Optimization MaxStp                        I              100
Optimization MaxJob                        I                4
Optimization Job offset                    I                0
Optimization Num results per geometry      I                2
Optimization Num geometry variables        I               18
Optimization Reference Energy              R     -1.150000000000000E+02
Opt point       1 Results for each geome   R   N=           8
 -4.44719825E-01  0.00000000E+00 -4.46990563E-01  0.00000000E+00 -4.47114527E-01
  0.00000000E+00 -4.47118727E-01  0.00000000E+00
Opt point       1 Geometries               R   N=          72
  1.28431047E+00 -4.70556072E-02  3.88443703E-06  1.97831044E+00  1.90964054E+00
  7.66388928E-06  1.90705085E+00 -1.03367215E+00 -1.70758666E+00  1.90704140E+00
 -1.03367593E+00  1.70759443E+00 -1.41052970E+00  2.33593198E-01 -1.78474134E-06
 -2.21402796E+00 -1.42870441E+00 -2.44614548E-05  1.29134591E+00 -4.20059320E-02
  4.38087844E-06  2.05261001E+00  1.88951490E+00  9.17370432E-06  2.05174344E+00
 -1.00480500E+00 -1.67884237E+00  2.05173374E+00 -1.00481006E+00  1.67885256E+00
 -1.46165148E+00  2.32384862E-01 -2.92491289E-06 -2.21095080E+00 -1.48694314E+00
 -2.22495422E-05  1.28895474E+00 -3.93562547E-02  4.57256281E-06  2.04339979E+00
  1.89483827E+00  1.02578209E-05  2.02558016E+00 -1.01425508E+00 -1.68495829E+00
  2.02556917E+00 -1.01426099E+00  1.68496884E+00 -1.45675671E+00  2.34406285E-01
 -3.54597992E-06 -2.17422389E+00 -1.50543495E+00 -1.98798723E-05  1.29086001E+00
 -3.96386774E-02  4.91070800E-06  2.04729819E+00  1.89377723E+00  1.14452820E-05
  2.02278042E+00 -1.01645090E+00 -1.68566802E+00  2.02276812E+00 -1.01645763E+00
  1.68567932E+00 -1.45691712E+00  2.35063330E-01 -4.33705395E-06 -2.18266987E+00
 -1.50354327E+00 -1.75061546E-05
Opt point       1 Gradient at each geome   R   N=          72
  3.45077500E-03 -3.18084413E-03  2.71008016E-07 -5.38275187E-03  6.62763922E-03
 -4.11077969E-08 -1.05144758E-02  1.28624390E-03  1.68372643E-04 -1.05146370E-02
  1.28644275E-03 -1.68678522E-04  1.90973265E-02 -2.11858401E-02 -3.75448035E-08
  3.86376317E-03  1.51663583E-02  1.13523749E-07 -2.22984715E-03 -4.29066560E-03
  2.29398168E-08  2.77631250E-03  2.73440275E-03 -1.60851490E-08  1.79811686E-03
  9.23281213E-04  1.12947447E-03  1.79812274E-03  9.23316070E-04 -1.12946623E-03
 -3.76609623E-03 -4.12261696E-03  6.91217169E-09 -3.76608728E-04  3.83228252E-03
 -2.20104352E-08 -2.92331612E-03 -3.83739760E-03 -2.86584001E-08  1.38693805E-03
  3.56701418E-03 -7.00986386E-09  2.40532350E-04 -3.98048087E-05 -9.63697416E-07
  2.40526443E-04 -3.97850089E-05  9.79357297E-07  2.96571144E-04 -3.28823843E-04
  5.59396572E-08  7.58748141E-04  6.78797082E-04 -3.59312682E-08 -1.78888816E-03
 -3.18590260E-03 -2.35736580E-08  1.52694105E-03  3.59239312E-03  2.56898212E-09
 -1.70995677E-06 -8.18772758E-05 -7.54348956E-05 -1.71272060E-06 -8.18653496E-05
  7.54465144E-05  4.00350646E-04 -2.41985824E-04  3.79078565E-08 -1.34980860E-04
 -7.62068132E-07 -2.85219481E-08
Opt point       2 Results for each geome   R   N=           4
 -4.45411099E-01  0.00000000E+00 -4.45429171E-01  0.00000000E+00
Opt point       2 Geometries               R   N=          36
  1.28902186E+00 -5.36527304E-02  5.10818450E-06  2.09115254E+00  1.96331048E+00
  1.25220733E-05  2.01484174E+00 -1.03429277E+00 -1.68575123E+00  2.01482855E+00
 -1.03430000E+00  1.68576294E+00 -1.45764599E+00  2.40177019E-01 -4.86566732E-06
 -2.19378605E+00 -1.49421749E+00 -1.59546590E-05  1.28682291E+00 -5.65271401E-02
  5.03675586E-06  2.08845403E+00  1.96063468E+00  1.23164877E-05  2.01976367E+00
 -1.02430815E+00 -1.68882072E+00  2.01975067E+00 -1.02431527E+00  1.68883236E+00
 -1.45681823E+00  2.40120861E-01 -4.72875880E-06 -2.19436000E+00 -1.49381530E+00
 -1.63526689E-05
Opt point       2 Gradient at each geome   R   N=          36
 -9.84773420E-03 -2.62891277E-02 -1.01744561E-07  1.10695341E-02  2.88306324E-02
  9.87290188E-08 -2.00261140E-04 -1.05580843E-03  2.29205587E-05 -2.00261659E-04
 -1.05580155E-03 -2.29185988E-05 -7.46369549E-04 -6.52187398E-04  1.69254878E-08
 -7.49075749E-05  2.22292597E-04 -1.58698680E-08 -1.10000897E-02 -2.82426971E-02
 -1.08178120E-07  1.11379902E-02  2.84108581E-02  9.52490650E-08  3.65495534E-05
 -1.29273339E-04 -6.37487142E-05  3.65471231E-05 -1.29264632E-04  6.37557892E-05
 -2.76588860E-04 -6.56904785E-05  2.41183182E-08  6.55917325E-05  1.56067447E-04
 -1.82642643E-08
Opt point       3 Results for each geome   R   N=           4
 -4.41570781E-01  0.00000000E+00 -4.41591874E-01  0.00000000E+00
Opt point       3 Geometries               R   N=          36
  1.28387359E+00 -7.09418730E-02  5.14752813E-06  2.13853698E+00  2.02672791E+00
  1.31288657E-05  2.00969009E+00 -1.04323162E+00 -1.68880364E+00  2.00967652E+00
 -1.04323901E+00  1.68881552E+00 -1.45675916E+00  2.46013150E-01 -5.06331674E-06
 -2.20707187E+00 -1.48271124E+00 -1.53903079E-05  1.28072745E+00 -7.42792645E-02
  5.16585335E-06  2.13764779E+00  2.02246954E+00  1.32651894E-05  2.01407542E+00
 -1.03238148E+00 -1.69202501E+00  2.01406167E+00 -1.03238899E+00  1.69203706E+00
 -1.45521184E+00  2.46222795E-01 -5.15088352E-06 -2.20845483E+00 -1.48180585E+00
 -1.50967593E-05
Opt point       3 Gradient at each geome   R   N=          36
 -1.70250844E-02 -4.40639686E-02 -1.68426368E-07  1.85976301E-02  4.65706607E-02
  1.71447439E-07 -2.32648607E-04 -1.06093121E-03  6.68578680E-05 -2.32648910E-04
 -1.06092566E-03 -6.68594071E-05 -1.12675528E-03 -6.99558935E-04  9.21191661E-09
  1.95071276E-05  3.14723787E-04 -1.06938584E-08 -1.86259025E-02 -4.60560713E-02
 -1.80100336E-07  1.87924606E-02  4.60122193E-02  1.73990318E-07 -2.10552427E-05
  5.15381766E-06  1.96335926E-05 -2.10560436E-05  5.15914016E-06 -1.96304256E-05
 -1.91419510E-04 -3.97815477E-05  1.29737614E-08  6.69726035E-05  7.33205356E-05
 -1.00307595E-08
Opt point       4 Results for each geome   R   N=           4
 -4.36192044E-01  0.00000000E+00 -4.36214981E-01  0.00000000E+00
Opt point       4 Geometries               R   N=          36
  1.27790447E+00 -8.87246388E-02  5.21223752E-06  2.18700734E+00  2.08869795E+00
  1.38738812E-05  2.00440776E+00 -1.05209483E+00 -1.69206533E+00  2.00439366E+00
 -1.05210244E+00  1.69207748E+00 -1.45516198E+00  2.52229184E-01 -5.34070456E-06
 -2.22193973E+00 -1.46998632E+00 -1.45679989E-05  1.27432818E+00 -9.22231193E-02
  5.25528165E-06  2.18630023E+00  2.08399932E+00  1.41205789E-05  2.00889560E+00
 -1.04088023E+00 -1.69530685E+00  2.00888120E+00 -1.04088803E+00  1.69531923E+00
 -1.45326546E+00  2.52470914E-01 -5.49863595E-06 -2.22392240E+00 -1.46865966E+00
 -1.40494230E-05
Opt point       4 Gradient at each geome   R   N=          36
 -2.25736412E-02 -5.64808652E-02 -2.22836486E-07  2.42610378E-02  5.90189901E-02
  2.30896838E-07 -2.42815046E-04 -1.08562609E-03  5.96553022E-05 -2.42815200E-04
 -1.08562269E-03 -5.96597328E-05 -1.21886279E-03 -6.58985570E-04  1.96933990E-09
  1.70964180E-05  2.92109450E-04 -5.59907881E-09 -2.43852224E-02 -5.84062332E-02
 -2.38519544E-07  2.44631696E-02  5.84121885E-02  2.36470656E-07 -1.45716754E-05
 -9.37643955E-06  3.36690739E-06 -1.45721341E-05 -9.37418703E-06 -3.36604073E-06
 -7.61457876E-05 -1.27742059E-05  5.09236568E-09  2.73424294E-05  2.55696099E-05
 -3.91012816E-09
Optimization Number of geometries          I   N=           4
           4           2           2           2
ONIOM Charges                              I   N=          16
           0           0           0           0           0           0
           0           0           0           0           0           0
           0           0           0           0
ONIOM Multiplicities                       I   N=          16
           1           0           0           0           0           0
           0           0           0           0           0           0
           0           0           0           0
Atom Layers                                I   N=           6
           1           1           1           1           1           1
Atom Modifiers                             I   N=           6
           0           0           0           0           0           0
Int Atom Modified Types                    I   N=           6
           0           0           0           0           0           0
Force Field                                I                0
Atom Modified Types                        C   N=           6
                                                            
            
Link Atoms                                 I   N=           6
           0           0           0           0           0           0
Atom Modified MM Charges                   R   N=           6
  0.00000000E+00  0.00000000E+00  0.00000000E+00  0.00000000E+00  0.00000000E+00
  0.00000000E+00
Link Distances                             R   N=          24
  0.00000000E+00  0.00000000E+00  0.00000000E+00  0.00000000E+00  0.00000000E+00
  0.00000000E+00  0.00000000E+00  0.00000000E+00  0.00000000E+00  0.00000000E+00
  0.00000000E+00  0.00000000E+00  0.00000000E+00  0.00000000E+00  0.00000000E+00
  0.00000000E+00  0.00000000E+00  0.00000000E+00  0.00000000E+00  0.00000000E+00
  0.00000000E+00  0.00000000E+00  0.00000000E+00  0.00000000E+00
Cartesian Gradient                         R   N=          18
 -2.43852224E-02 -5.84062332E-02 -2.38519544E-07  2.44631696E-02  5.84121885E-02
  2.36470656E-07 -1.45716754E-05 -9.37643955E-06  3.36690739E-06 -1.45721341E-05
 -9.37418703E-06 -3.36604073E-06 -7.61457876E-05 -1.27742059E-05  5.09236568E-09
  2.73424294E-05  2.55696099E-05 -3.91012816E-09
Nonadiabatic coupling                      R   N=          18
  0.00000000E+00  0.00000000E+00  0.00000000E+00  0.00000000E+00  0.00000000E+00
  0.00000000E+00  0.00000000E+00  0.00000000E+00  0.00000000E+00  0.00000000E+00
  0.00000000E+00  0.00000000E+00  0.00000000E+00  0.00000000E+00  0.00000000E+00
  0.00000000E+00  0.00000000E+00  0.00000000E+00
Dipole Moment                              R   N=           3
  2.99999036E-01 -6.84762773E-01 -8.09526677E-07
Quadrupole Moment                          R   N=           6
  1.72735940E-01  4.41631849E-01 -6.14367789E-01  1.64022291E+00  8.27741076E-06
  1.02005440E-05
QEq coupling tensors                       R   N=          36
 -2.73091741E-01 -4.59054722E-03  8.96430644E-02 -1.93256794E-06 -2.42826970E-07
  1.83448676E-01  3.29652957E-02 -6.94912177E-02 -1.01578268E-01 -3.09804517E-07
 -6.88114375E-07  6.86129720E-02  8.66145208E-02  6.76166073E-02  5.94686167E-02
  1.20220132E-01 -1.66540040E-01 -1.46083138E-01  8.66165698E-02  6.76157505E-02
  5.94670816E-02 -1.20217847E-01  1.66541556E-01 -1.46083651E-01 -1.53339564E+00
 -6.07616757E-01 -5.99794638E-01 -1.77201964E-05 -1.08460450E-05  2.13319028E+00
  7.83503153E-02 -2.63445390E-01 -3.36696449E-01 -1.57648611E-06 -2.94580149E-06
  2.58346134E-01
Gaussian Version                           C   N=           2
AS64L-G16RevC.02        
