[Molden Format]
[Atoms] (AU)
N    1    7        -0.014088313098       0.084590392416       0.103771151230
H    2    1         1.495211382798       0.021418737520       0.044560362308
H    3    1        -0.591945777547      -1.662166620160       0.535031221194
H    4    1        -0.707517648382       0.465419341072      -2.021424306444
[GTO]
  1 0
 s    9  1.00
    45840.0000000000         0.0000920000
     6868.0000000000         0.0007170000
     1563.0000000000         0.0037490000
      442.4000000000         0.0155320000
      144.3000000000         0.0531460000
       52.1800000000         0.1467870000
       20.3400000000         0.3046630000
        8.3810000000         0.3976840000
        3.5290000000         0.2176410000
 s    9  1.00
    45840.0000000000        -0.0000200000
     6868.0000000000        -0.0001590000
     1563.0000000000        -0.0008240000
      442.4000000000        -0.0034780000
      144.3000000000        -0.0119660000
       52.1800000000        -0.0353880000
       20.3400000000        -0.0800770000
        8.3810000000        -0.1467220000
        3.5290000000        -0.1163600000
 s    1  1.00
        1.0540000000         1.0000000000
 s    1  1.00
        0.4118000000         1.0000000000
 s    1  1.00
        0.1552000000         1.0000000000
 p    3  1.00
       49.3300000000         0.0055330000
       11.3700000000         0.0379620000
        3.4350000000         0.1490280000
 p    1  1.00
        1.1820000000         1.0000000000
 p    1  1.00
        0.4173000000         1.0000000000
 p    1  1.00
        0.1428000000         1.0000000000
 d    1  1.00
        2.8370000000         1.0000000000
 d    1  1.00
        0.9680000000         1.0000000000
 d    1  1.00
        0.3350000000         1.0000000000
 f    1  1.00
        2.0270000000         1.0000000000
 f    1  1.00
        0.6850000000         1.0000000000
 g    1  1.00
        1.4270000000         1.0000000000
 s    1  1.00
        0.0546400000         1.0000000000
 p    1  1.00
        0.0440200000         1.0000000000
 d    1  1.00
        0.1110000000         1.0000000000
 f    1  1.00
        0.2450000000         1.0000000000
 g    1  1.00
        0.5590000000         1.0000000000

  2 0
 s    3  1.00
       82.6400000000         0.0020060000
       12.4100000000         0.0153430000
        2.8240000000         0.0755790000
 s    1  1.00
        0.7977000000         1.0000000000
 s    1  1.00
        0.2581000000         1.0000000000
 s    1  1.00
        0.0898900000         1.0000000000
 p    1  1.00
        2.2920000000         1.0000000000
 p    1  1.00
        0.8380000000         1.0000000000
 p    1  1.00
        0.2920000000         1.0000000000
 d    1  1.00
        2.0620000000         1.0000000000
 d    1  1.00
        0.6620000000         1.0000000000
 f    1  1.00
        1.3970000000         1.0000000000
 s    1  1.00
        0.0236300000         1.0000000000
 p    1  1.00
        0.0848000000         1.0000000000
 d    1  1.00
        0.1900000000         1.0000000000
 f    1  1.00
        0.3600000000         1.0000000000

  3 0
 s    3  1.00
       82.6400000000         0.0020060000
       12.4100000000         0.0153430000
        2.8240000000         0.0755790000
 s    1  1.00
        0.7977000000         1.0000000000
 s    1  1.00
        0.2581000000         1.0000000000
 s    1  1.00
        0.0898900000         1.0000000000
 p    1  1.00
        2.2920000000         1.0000000000
 p    1  1.00
        0.8380000000         1.0000000000
 p    1  1.00
        0.2920000000         1.0000000000
 d    1  1.00
        2.0620000000         1.0000000000
 d    1  1.00
        0.6620000000         1.0000000000
 f    1  1.00
        1.3970000000         1.0000000000
 s    1  1.00
        0.0236300000         1.0000000000
 p    1  1.00
        0.0848000000         1.0000000000
 d    1  1.00
        0.1900000000         1.0000000000
 f    1  1.00
        0.3600000000         1.0000000000

  4 0
 s    3  1.00
       82.6400000000         0.0020060000
       12.4100000000         0.0153430000
        2.8240000000         0.0755790000
 s    1  1.00
        0.7977000000         1.0000000000
 s    1  1.00
        0.2581000000         1.0000000000
 s    1  1.00
        0.0898900000         1.0000000000
 p    1  1.00
        2.2920000000         1.0000000000
 p    1  1.00
        0.8380000000         1.0000000000
 p    1  1.00
        0.2920000000         1.0000000000
 d    1  1.00
        2.0620000000         1.0000000000
 d    1  1.00
        0.6620000000         1.0000000000
 f    1  1.00
        1.3970000000         1.0000000000
 s    1  1.00
        0.0236300000         1.0000000000
 p    1  1.00
        0.0848000000         1.0000000000
 d    1  1.00
        0.1900000000         1.0000000000
 f    1  1.00
        0.3600000000         1.0000000000

[MO]
 Sym= A
 Ene= -1.55323289800723909e+01
 Spin= Alpha
 Occup=  2.00000000000000000e+00
  1  9.95123998135164833e-01
  2  4.75047395446775989e-03
  3  2.40699785818714040e-02
  4 -9.31543821939850858e-03
  5  1.12880825146621788e-02
  6  5.63189534284844195e-04
  7 -1.61235740284430872e-03
  8 -1.68496223073878824e-03
  9 -1.29786701158512985e-04
 10  3.75968714328628328e-03
 11  4.17429356459599055e-03
 12 -5.01374636086171499e-03
 13 -6.88751896780459560e-03
 14 -9.11116222335056625e-03
 15  2.92975420910826512e-03
 16  1.13479221376217715e-03
 17  3.88433219191608448e-03
 18 -9.58019602098542089e-04
 19 -1.48264665414665764e-03
 20 -1.31082687205297255e-03
 21  3.20803240875541015e-04
 22  3.82007971789487602e-04
 23 -5.73308387018368979e-04
 24  4.58575469037963979e-04
 25  2.25178474942788753e-03
 26  1.08193992019281482e-03
 27 -1.24168365881949239e-03
 28 -1.69762809465322240e-03
 29  3.20613499149863257e-03
 30  2.40119897938595450e-04
 31  2.18081416690441010e-03
 32  3.55087098735351603e-03
 33 -2.56965254374241781e-04
 34 -2.22203238428253513e-04
 35 -3.71941543365328364e-03
 36  1.85035158181495740e-04
 37 -7.44269536950656341e-04
 38 -8.49826595937661772e-04
 39 -1.56579032005332852e-04
 40 -6.81321501389546558e-04
 41 -7.85734070542429275e-04
 42 -1.09936364684995458e-04
 43 -6.57357266559511350e-04
 44 -7.39473918096381078e-04
 45  7.24566496674780569e-05
 46  2.16438203441249311e-04
 47  2.31325168000057202e-03
 48  2.47375167134383095e-03
 49  8.00334497702392955e-04
 50  2.45034438297497825e-03
 51  2.75552599148608593e-03
 52  8.66497131918386732e-04
 53  2.14087248320415924e-03
 54  2.11760108698932914e-03
 55 -1.74442512869396604e-04
 56 -7.59875313576047207e-04
 57 -1.63758821469234261e-03
 58 -1.00364461130209026e-03
 59  8.61290404003185739e-04
 60  1.29705457245332667e-03
 61  8.96980830126344530e-04
 62 -1.36650249432405599e-03
 63  1.12118435607734589e-03
 64 -1.26244631263522714e-03
 65 -2.65211174908835945e-03
 66 -1.98350168697536411e-03
 67 -2.65924455856736408e-03
 68 -1.31290204114075520e-03
 69  1.08565317423353971e-03
 70  8.78574248178512485e-04
 71  4.16922304176309266e-04
 72  7.49552791613761205e-05
 73  3.90045769631010286e-05
 74  1.27732141419513445e-04
 75 -4.43800709793495951e-04
 76 -8.70688211928205558e-04
 77 -1.21742019742887564e-03
 78 -8.55590163362229816e-05
 79 -1.90063864374534486e-04
 80 -3.11182070084098372e-04
 81 -4.99276017261879312e-04
 82 -2.02469621354239848e-03
 83 -3.51611950465521850e-03
 84 -7.59105623810873986e-04
 85 -1.94518084751815756e-03
 86 -3.51227137955188468e-03
 87 -1.29228192026772937e-03
 88 -7.70858865114874836e-04
 89 -2.03142158939202677e-03
 90  5.10747478766518381e-04
 91  5.42281198040839296e-04
 92  4.77023300605172729e-04
 93  2.96842798938028868e-04
 94  7.66593113059821363e-04
 95  5.17051536106594156e-04
 96  7.60669173462596993e-04
 97  1.63436471076593148e-03
 98  8.11776118712387307e-04
 99  1.32098825105196604e-03
100  1.45628018547725585e-03
101  1.16994197233372121e-03
102  6.07425797873983875e-04
103  1.37375496355211790e-03
104  7.65594971741168084e-04
105  4.49604440886524270e-04
106  2.18271742762149445e-04
107  4.36916155284083896e-03
108 -5.88914613822821842e-03
109  5.71920966394925956e-04
110 -4.15435019139112627e-04
111 -5.78146236179626072e-05
112 -5.80822511641915402e-05
113 -4.89262087393083078e-05
114  2.41729559494925639e-04
115  1.96041392650093960e-04
116 -3.32712070277452199e-03
117 -3.34244305763647942e-04
118  3.98057297072082483e-04
119  2.36719859213474493e-04
120 -5.07935863958350331e-05
121 -5.18213809174924989e-05
122  1.81818758105550815e-06
123  4.37993742059532981e-05
124 -7.49442060851636567e-06
125  1.55563264466029860e-03
126  6.29151528902749391e-04
127  5.87640080619622474e-04
128  2.71029638385860555e-04
129  2.83928184987923549e-04
130 -1.35848720761305719e-05
131 -5.18299960423462824e-04
132 -7.31353451396653254e-05
133 -4.43608025437036008e-05
134 -2.16772138669607539e-04
135 -1.28411704335668064e-04
136 -1.59473039168170697e-04
137 -1.86049829219991913e-04
138 -7.13382205849051598e-05
139 -4.14903101069530669e-05
140  1.47172574005227999e-05
141 -9.32261481656412871e-05
142 -8.86130729272349704e-05
143 -5.91399350499677290e-05
144 -7.71397857182998248e-05
145 -4.63513752012256752e-04
146 -8.42506049640541488e-04
147 -6.85180911629081763e-04
148 -3.81795814428376179e-05
149 -2.50998935468552120e-04
150  4.37603245495160609e-05
151  1.52078107462272349e-03
152  4.27781687800138366e-04
153  4.43185958266353874e-04
154  1.69829366835316797e-03
155  2.91793644363297355e-04
156  9.87125006257222326e-05
157  1.58867053859701457e-03
158  5.06508515832032602e-04
159  5.06212724424984217e-04
160  1.14260083066156093e-04
161  1.11022952571392108e-04
162  1.31704575490609876e-03
163 -8.70103561031498884e-03
164  5.73812089497804934e-04
165  2.61119098028950170e-05
166 -2.08400663679553233e-04
167 -4.30608978101709727e-05
168 -1.54020304813373698e-05
169  1.19422040808814245e-03
170  1.24127958386288650e-04
171  2.39136693038433101e-04
172 -1.10415293996446451e-03
173  4.17415656377873034e-04
174  1.00548164328022327e-05
175  3.92166078861180822e-05
176  2.46876333194478992e-05
177  4.84385108786775098e-06
178  1.56464148412874260e-06
179 -3.72435031211655609e-05
180  3.39208501338894575e-04
181  7.62790112691869027e-04
182  1.81646861043577301e-04
183  5.09700303901183815e-04
184 -1.16599553218438290e-04
185 -8.97775177995940865e-05
186  2.13053317031919320e-05
187 -2.55535608327986385e-04
188 -3.33756609566943085e-05
189  1.13703384384711281e-04
190 -2.98785130892875728e-04
191 -5.12287244842646317e-05
192  2.49382708268214293e-05
193 -3.20160296983895698e-04
194 -1.23777821589635129e-04
195 -5.72173295488309641e-05
196 -8.05760932585941614e-06
197 -2.11152914391665725e-05
198  5.37668653630696269e-05
199 -1.07827653340400453e-04
200 -6.23954182425445758e-05
201  9.80361771037441265e-05
202  4.56425617977040954e-05
203  1.16066039798801146e-04
204  5.88596012484760012e-05
205  2.37260029368691061e-04
206 -6.00621939481529865e-04
207 -3.20300493495850880e-04
208  2.15164609443319055e-04
209 -1.99462752258128262e-04
210 -5.32519343493187414e-04
211  1.98357881324967567e-04
212 -6.23425350937095724e-04
213 -6.16726318551474861e-04
214  7.06032638494308307e-05
215 -1.92651785589303959e-04
216  5.25070157334328168e-05
217  5.68575174706639763e-04
218 -8.07617925574399820e-03
219  1.35534651927882166e-03
220  7.83534611558250882e-05
221 -4.98515354602178939e-05
222  2.00995935324854713e-04
223 -2.93613743606813138e-04
224  1.78823279853732031e-04
225 -7.34741787918491429e-04
226 -4.18847182815845764e-04
227  2.95758753195290991e-04
228 -1.24687817699375980e-03
229 -1.44338803906339866e-06
230 -1.34791729547358713e-06
231  2.35006128759818189e-06
232 -8.20231912043722922e-08
233 -2.76200157335593222e-06
234 -1.64381442528671595e-05
235  1.48336687679842538e-04
236  1.19631673916445469e-04
237  4.82986909089766492e-04
238 -4.42928640456245748e-05
239  2.58609221877204032e-04
240 -6.85546638016232279e-05
241  9.07668477968665011e-05
242 -5.98695813767077811e-05
243  2.98573693812795304e-04
244  1.11590220238023952e-04
245 -6.59056690297601944e-05
246  2.45802120648480615e-04
247  1.38896612740066483e-04
248 -1.10045971557704535e-04
249  2.34082430629181659e-04
250 -1.43038900706944638e-05
251  4.48189942169607836e-05
252  5.75337757209859468e-05
253 -1.18630498957217334e-04
254  2.01419216996234773e-04
255  8.56128924692535487e-05
256  2.11669611856299400e-04
257  3.16718465666054882e-05
258  5.29861722410561453e-05
259 -1.03505865593211954e-04
260  1.91544555999456634e-04
261 -4.11302815565547930e-04
262  1.78368951657366555e-04
263 -5.35396677015242961e-04
264 -4.58642563911426659e-04
265  1.54691015735564097e-04
266 -8.94782575372038425e-04
267  1.52973440630810309e-04
268 -1.38958426526836210e-05
269 -1.01507639515734105e-03
270 -1.94560161414683574e-04
 Sym= A
 Ene= -1.17924918150656777e+00
 Spin= Alpha
 Occup=  2.00000000000000000e+00
  1  1.10513660113981116e-02
  2 -2.85207630300637671e-01
  3 -2.14967961819741427e-01
  4 -4.97151070744498824e-01
  5 -1.36500778821076807e-01
  6 -3.17471476092132318e-02
  7  1.61940324962993459e-02
  8  4.32773334079235295e-03
  9 -6.47237589249391454e-02
 10  2.97488809055426184e-02
 11  8.58335960779177398e-03
 12 -4.10460742004090662e-02
 13  4.24329426497003226e-02
 14  1.73265604815950880e-02
 15 -8.76226614695463368e-03
 16 -7.24998947259658522e-03
 17 -7.11598150116632411e-03
 18 -5.82132172395316561e-03
 19 -6.10131852133044550e-04
 20  6.90234588781979408e-04
 21  6.02370742343066867e-04
 22  1.27665150413667355e-03
 23 -6.29241831519994355e-05
 24 -1.89435919466907077e-03
 25  4.85657862503741100e-03
 26  1.10564132506947854e-02
 27 -3.55763572870815281e-03
 28 -2.25569046323759181e-04
 29  7.51537940648971947e-03
 30 -2.51984482161189405e-02
 31 -3.86511520941290598e-02
 32 -4.21708334560086939e-02
 33 -5.12641082723508390e-03
 34 -2.01181093530600208e-03
 35  7.08347561741007326e-03
 36 -4.10873652911833420e-03
 37  2.07012963998531863e-03
 38  7.85430924660504570e-04
 39  1.73285920842092267e-03
 40  1.48580216555398159e-03
 41  7.32388529188422732e-04
 42  7.87535923546300864e-04
 43  2.68713335909318007e-04
 44 -1.14867223427284060e-03
 45 -6.92036077180907538e-04
 46 -1.86855735311938220e-02
 47  5.49936513152360362e-03
 48  2.28293765973539009e-03
 49 -1.36358881991700542e-02
 50  2.07038291128913698e-03
 51 -5.46605930833610199e-04
 52 -1.43377030095364066e-02
 53 -1.71131472345820157e-04
 54 -4.52289934096006263e-03
 55 -2.46088508542907647e-04
 56 -3.65418101699688247e-03
 57 -2.30534170841956154e-04
 58  1.31122659742799463e-04
 59  2.53469998683902853e-03
 60  1.67100173045592326e-03
 61  3.92961037919081768e-04
 62 -1.31568234352980040e-03
 63  3.30504767164715996e-04
 64 -2.13066985468385317e-03
 65 -7.55621926147309608e-04
 66 -7.33150997618170486e-04
 67  1.57643874798052419e-03
 68 -2.12163078699174890e-03
 69  2.21083363062812843e-03
 70  2.19380578501976453e-03
 71  1.77000576793259201e-02
 72  1.21388607192568498e-03
 73 -1.82303880322759460e-03
 74 -1.31025249631321061e-03
 75 -4.79622079835451132e-03
 76 -2.98923097865699816e-03
 77 -2.87532811397905874e-03
 78 -4.36114672897502942e-04
 79 -2.98285417701271705e-04
 80  1.31228231330959844e-03
 81 -2.29874325630707865e-03
 82  1.14865943824595806e-02
 83  1.00053490409881540e-02
 84  2.73366921247797379e-04
 85  1.10597870295626732e-02
 86  9.21808949484981266e-03
 87  3.03982701985283654e-04
 88  6.89596673769388158e-03
 89  4.33272199683876202e-03
 90 -5.21779288783219553e-04
 91  1.31434699556243206e-03
 92  1.40318252111979458e-02
 93  1.97755564654717997e-02
 94  1.04875481858290875e-03
 95  1.92894048238967386e-03
 96  3.62819285504334399e-03
 97 -1.84875650449889406e-04
 98  3.65905917726405683e-03
 99 -1.02374167925889381e-03
100  1.10199315904168094e-02
101  1.78681755161549383e-02
102  3.62749254849841218e-02
103 -4.60200515431941071e-04
104  2.06223571546182427e-03
105  9.53134756677354034e-04
106 -6.07726283817435486e-02
107 -9.86192819287445843e-02
108 -5.44608737158354117e-02
109 -2.69458713716445031e-02
110  2.81637109810845138e-02
111  2.83547144212810409e-04
112 -3.37485512700047563e-04
113 -5.98407468947601551e-02
114  1.11751245031488367e-04
115  5.82531723852919292e-04
116  1.03348771080948865e-02
117  2.27145033392481613e-03
118  1.01250639250544117e-03
119 -4.16807280337083697e-03
120 -7.24435990661409512e-04
121 -6.76880477376046175e-04
122 -1.28313492719224487e-04
123  1.59310448106700364e-04
124  1.26104040771492232e-04
125  9.82896418718670617e-03
126  8.69022969405253143e-03
127  8.21830260909739430e-03
128 -6.77760558578932581e-04
129 -6.43208956987162406e-04
130 -1.37247342329616107e-04
131  2.64064273994502052e-02
132  1.31223457741830307e-04
133 -2.20734316510540207e-04
134  2.58480685590146697e-02
135  3.44412385052610126e-04
136 -2.08620710996858250e-04
137  2.58469957054987820e-02
138  2.27074094567653040e-04
139 -1.14583022726599815e-04
140 -5.12071490309552735e-05
141 -8.72060815571729098e-04
142  1.08546234241468920e-03
143  1.31520588936839822e-03
144  1.16910246279366969e-03
145  8.17904505549704730e-03
146  9.25905315439268239e-03
147  9.27003328323394715e-03
148 -1.88307318493952103e-04
149  1.84622246924837086e-04
150 -6.95170175893822240e-04
151 -4.55290520565121426e-03
152 -7.59746781526793313e-04
153 -1.05334617178443057e-03
154 -7.91603131365725687e-03
155 -6.90528316309002577e-04
156 -9.53748940172249871e-04
157 -7.53178713662006061e-03
158 -7.27057381632700839e-04
159 -9.79759973992133659e-04
160 -8.77852693395575479e-05
161 -3.35835825502825425e-02
162 -7.08981739782039710e-02
163 -2.83778130540532914e-02
164 -1.79151344741406149e-02
165 -5.19438533416832771e-03
166 -1.15074931248330126e-02
167  3.52038680939870119e-03
168  9.18729228240477980e-03
169  2.09453340803760213e-02
170 -6.80694554985694644e-03
171 -9.04771519139213609e-03
172 -1.88471591363761348e-02
173  7.11410769853415559e-03
174 -9.98326062960852578e-04
175 -2.20359377759193897e-03
176 -6.62415672890492857e-04
177 -1.52388674745454478e-03
178  3.97987629506185714e-04
179  9.57821310518414126e-04
180  5.52571704564019939e-05
181 -2.05880101983968444e-03
182 -7.35129314107796361e-04
183 -1.64275265489344235e-03
184  3.53020716817198377e-04
185  1.19289269570410639e-03
186 -4.39212839069541561e-03
187 -1.01882884507093485e-02
188  3.05294120169752325e-03
189 -5.22543351858700822e-03
190 -1.01622401766713333e-02
191  3.14065740609270616e-03
192 -4.31643364465406076e-03
193 -9.84851131388497780e-03
194  3.56712933305186608e-03
195  4.98844866682335297e-04
196 -3.62242849998972716e-04
197 -5.36862603026433405e-04
198  1.66973414413629229e-04
199  1.15350317237367106e-03
200  4.24211053681855521e-03
201  3.97783993795686186e-03
202  3.62317894221411696e-03
203 -3.50779267017209406e-04
204  4.96006198050846780e-04
205 -4.78582961828122322e-04
206  3.71930436444259382e-03
207  8.90486457171468793e-03
208 -3.33368086556434795e-03
209  2.29628255831892947e-03
210  1.04348206065437710e-02
211 -3.74107384104810370e-03
212  3.63931684905349773e-03
213  9.43653998278404238e-03
214 -2.78745242551853289e-03
215  5.77120950793930110e-04
216 -1.97389596059998340e-02
217 -4.84127737525517077e-02
218 -2.11875766000524379e-02
219 -1.08431229335828050e-02
220 -2.73352395300452411e-03
221  1.58891572669497827e-03
222 -6.08487007729469065e-03
223  4.71795093308502445e-03
224 -2.79325755264026032e-03
225  1.01036502272457973e-02
226 -8.26837810999947465e-03
227  5.24038294841600027e-03
228 -2.01583441974300115e-02
229 -6.33185507890016153e-04
230 -4.79085007542678909e-04
231 -1.36767033510998282e-03
232  1.56429360849683063e-04
233 -7.81389603722898451e-04
234  4.58043340723935169e-04
235 -1.76225425657017265e-03
236 -1.87449576092346692e-03
237 -5.08276269823126903e-03
238  4.90828162408446511e-04
239 -2.46883294309663270e-03
240  1.31452427149547635e-03
241 -2.37867310022349399e-03
242  1.34844734062367078e-03
243 -5.80209686263158386e-03
244 -2.33167353636262731e-03
245  1.38759238975236232e-03
246 -5.34821659388678983e-03
247 -3.36876287580599454e-03
248  1.88880079053931754e-03
249 -5.08936555659161849e-03
250  3.69725489264505214e-04
251  3.13607132691462454e-05
252 -2.42879382795546661e-04
253  7.78113778809069734e-04
254  9.25734255634580450e-04
255  2.33112155682529965e-03
256  1.81619721550231594e-03
257  2.59128773541794644e-03
258  4.36025979908633010e-04
259  1.61064465889815267e-04
260 -5.29662004221553850e-04
261  3.60707235836044138e-03
262 -2.21709661389836096e-03
263  9.08704229284285070e-03
264  3.55041107505699172e-03
265 -2.33568867885499895e-03
266  1.03259858304054486e-02
267  2.59099555206243615e-03
268 -2.12722572327228576e-03
269  9.71959458887206029e-03
270  5.01454060243627930e-04
 Sym= A
 Ene= -6.81306640311733713e-01
 Spin= Alpha
 Occup=  2.00000000000000000e+00
  1 -3.28768844173210617e-04
  2  2.76959575431637850e-02
  3  2.70997970733202198e-02
  4  8.16287009798806196e-02
  5  8.14100045259280591e-02
  6 -1.23306529170778389e-01
  7 -5.18288367741435996e-02
  8  6.54456853804197963e-03
  9 -2.48041510503554941e-01
 10 -9.97292269256924158e-02
 11  1.38945777573992735e-02
 12 -1.68868097070483003e-01
 13 -1.12171324736948463e-01
 14  4.07739455185001341e-03
 15 -2.21995116992199648e-02
 16  9.18315288942084251e-03
 17 -1.11263561978547365e-03
 18 -8.68629623076819235e-03
 19  5.43116198962903529e-03
 20  2.21800870929761418e-03
 21  4.29662148782063158e-03
 22  2.37230018487267352e-03
 23 -1.43956627867088127e-03
 24 -1.27384336737853543e-02
 25  2.00983090603301662e-02
 26  4.68961330400075038e-03
 27  1.59295510353361092e-02
 28  4.49822801130644878e-03
 29 -8.01963111774461890e-03
 30  4.93820597060756761e-02
 31  4.28277540766242026e-03
 32  8.62344045328233832e-03
 33 -1.69243656670801101e-02
 34 -7.04425927757768022e-04
 35  4.72587939410740177e-03
 36 -6.53445846380290574e-03
 37 -3.62939123573519096e-03
 38 -2.84607543503817562e-04
 39 -4.88757701995645721e-03
 40 -2.90056497463803131e-03
 41  1.40818035958729937e-04
 42 -2.88379135616545490e-03
 43 -1.67937801020329180e-03
 44  2.09049527733473628e-03
 45  2.15849326990151524e-03
 46 -5.08431854266289118e-02
 47 -1.54173242170169145e-02
 48  2.43075462478609117e-03
 49 -6.03539256038576610e-02
 50 -1.84539447957832517e-02
 51  5.23015527612774589e-04
 52 -5.71339871468858895e-02
 53 -1.18024365314117752e-02
 54  9.30724523575321427e-03
 55  8.29061031092503953e-03
 56 -6.96447704496216957e-03
 57  2.25677275827163015e-03
 58  1.74219930424253377e-03
 59  1.92620970207235676e-03
 60  2.54876923524938181e-03
 61  4.55503885202035441e-03
 62 -9.56291797675534738e-04
 63  3.12596707259341078e-03
 64  5.99830425207614759e-04
 65 -1.97036158759289481e-03
 66 -2.25578117921004795e-03
 67  2.45988660337725928e-03
 68  4.28047165303535593e-04
 69 -1.64958992250330283e-05
 70  1.60755673880584246e-03
 71  4.91665709073152435e-03
 72  2.36257952444396402e-03
 73  1.80032054242085238e-03
 74  2.22505255528915313e-04
 75  4.31848589953243156e-03
 76  4.70896525320574355e-03
 77  5.35839516749714306e-03
 78  1.47423713276007007e-03
 79  3.95992399331812628e-03
 80  1.62448677123516738e-03
 81 -1.92375267352000723e-02
 82 -2.34112150683416509e-02
 83 -2.76288880684427696e-04
 84 -2.69834277450877735e-02
 85 -2.89198147682638851e-02
 86 -7.42358169332879569e-04
 87 -2.72032774061257143e-02
 88 -2.30949940163106548e-02
 89  7.48368620851369570e-04
 90  2.42772940691193817e-03
 91 -3.06466840958453668e-02
 92  1.69747674558553552e-02
 93  5.35022965659326388e-03
 94  1.51630755609393209e-02
 95  4.29038253550717563e-03
 96  2.42443558024534322e-02
 97 -6.65813128511894003e-03
 98  1.19158262972159645e-02
 99 -5.68021229575477182e-03
100 -1.57660620973958387e-02
101 -2.98568740131146537e-02
102  2.45456761400211221e-02
103 -4.27540258237463222e-03
104  4.06323946171927020e-03
105  2.06467173213768437e-02
106 -6.75563317532586055e-02
107 -1.32491059312227488e-01
108 -2.59473101976483989e-01
109 -1.43682057631459692e-01
110  2.37839861692474286e-02
111 -6.43225263198304864e-03
112 -9.13875625234442102e-04
113 -3.86991286982425464e-02
114  1.37685153144269101e-02
115  3.48466450901008251e-03
116  1.54742412894623982e-02
117 -8.32042946528144256e-03
118 -2.27233394520603982e-03
119 -4.30589054961466947e-03
120  1.62048594968895038e-04
121 -1.47551123239053616e-05
122  1.66015880423110024e-03
123  1.43104938239047019e-04
124 -9.32333472477980818e-05
125  9.27085938647032037e-03
126  1.40645730379798106e-02
127  1.47359146929550988e-02
128  1.13027048984648548e-03
129  5.79559068215523832e-04
130 -2.80874858732023391e-04
131  2.33125503848280458e-02
132 -5.52453717534445721e-03
133 -1.01700977176213958e-03
134  2.08027378081500069e-02
135 -6.63222174317024127e-03
136 -1.27811169088526411e-03
137  2.08995783576404470e-02
138 -5.19661223692513552e-03
139 -6.14390467849241367e-04
140  5.00865380595419407e-04
141 -3.75217532451799229e-03
142  2.15875570987902332e-02
143 -1.71955127960754517e-04
144 -1.28405048350931084e-03
145  4.26744676174628523e-03
146  1.26633419313910041e-02
147  1.12230271517602120e-02
148 -1.52368952482351272e-03
149 -2.36008729052928495e-04
150 -5.61163677693987673e-04
151  9.71097160324418951e-03
152  5.29038064721110146e-03
153  1.60585412879746259e-03
154  3.37893777204634205e-03
155  3.82306309233326758e-03
156  8.53162490068337664e-04
157  3.13189368162802850e-03
158  5.57136218428977426e-03
159  2.38760847001422138e-03
160  1.02937737948180508e-03
161  5.31716247639839601e-02
162  1.13926946679121066e-01
163  1.66262378692284329e-01
164  1.05212793174057850e-01
165 -1.38059730010189896e-03
166  1.21238291895132688e-02
167 -3.79465331492820357e-03
168  4.80735208320393070e-03
169 -1.53779658152659593e-02
170  4.74092770086254056e-03
171 -6.85032328366164123e-03
172  1.61870293769439400e-02
173 -5.40992527100225828e-03
174  3.58281423476602967e-04
175  3.07975368135871008e-03
176  1.00638690158294519e-03
177  2.26486168242001629e-04
178 -3.18331503087326828e-05
179 -1.44443842376115739e-03
180 -2.08578450150276318e-03
181 -9.38354905759553048e-04
182 -3.19119718304694544e-03
183  3.90583208941190640e-04
184 -1.99748007334729638e-04
185 -1.38575940282459342e-03
186 -1.73969159873900436e-03
187  1.00251802074268828e-02
188 -3.05400951920004049e-03
189 -1.46646013242418549e-03
190  8.76120058626073117e-03
191 -2.95579951179181233e-03
192 -1.40199813613471613e-03
193  9.22163793283808930e-03
194 -4.00152131891845508e-03
195  6.26494560450885363e-05
196  3.03823806825032072e-03
197  6.29771358685338178e-03
198  1.51047963226709214e-02
199 -4.46593550807723727e-03
200 -4.05450548674501920e-03
201 -2.09216339287610076e-04
202 -3.56139271087158038e-03
203  3.70523755981411185e-03
204 -6.02304009540866048e-04
205 -2.32763894576025476e-03
206  3.32255176566964572e-03
207  1.42656252093864566e-03
208  4.56293315007627598e-05
209  5.46768416494147758e-03
210  1.34853929185885235e-03
211 -1.15655765118649612e-03
212  3.08209705068152040e-03
213 -1.11742131167780201e-03
214 -1.79187353956511419e-03
215 -1.71905980325981478e-03
216  1.53764062356694514e-02
217  3.61290211925370253e-02
218  4.83328437238572661e-02
219  2.35138437042352599e-02
220 -2.50174081826609607e-03
221 -2.55169913958508410e-03
222  4.06706258249819874e-03
223  3.94365760689163736e-03
224  4.23116860414785023e-03
225 -7.04477626541155644e-03
226 -7.78230122133988234e-03
227 -7.66927783538728924e-03
228  1.11636807783415115e-02
229 -9.05535645242955267e-05
230  4.67256818694132547e-04
231  1.00787759533624288e-03
232 -5.18211129681839244e-06
233 -4.86625539570240129e-04
234 -7.86827670230083598e-04
235  5.59956894837565500e-04
236 -7.86045253925449217e-05
237  1.18015955245598381e-03
238 -2.38703022517661179e-04
239 -9.44567040526422819e-04
240 -9.26867149071530783e-04
241 -2.37336054172922195e-03
242 -2.28655725075527227e-03
243  4.02224449487544045e-03
244 -2.25489947317739081e-03
245 -2.28516625957803088e-03
246  3.11480935039654128e-03
247 -2.71822888639114413e-03
248 -3.06279755878674509e-03
249  3.62279873264201302e-03
250 -1.01740438480837914e-04
251  6.11182226784634519e-04
252  1.50601280419648820e-03
253 -6.97667949152158684e-04
254  2.51296899779829275e-03
255 -7.21376180188970650e-04
256 -9.83565077875725446e-04
257 -1.40144555536125814e-04
258  1.67529324699988713e-04
259  1.07565691298550092e-03
260  4.17701126392722166e-04
261  1.77816352334603245e-03
262  1.75235431159714850e-03
263 -2.41578900477329439e-03
264  1.02692783573288260e-03
265  8.38854285747585304e-04
266 -5.51649291488431892e-04
267  1.92181807917335412e-03
268  2.44678341808080013e-03
269 -3.98903174355913492e-03
270 -5.07360563408221221e-04
 Sym= A
 Ene= -5.87197590575416317e-01
 Spin= Alpha
 Occup=  2.00000000000000000e+00
  1 -2.95452959938671822e-04
  2  2.55118379601544654e-02
  3  1.57768412195954388e-02
  4  8.72999502608831079e-02
  5  1.21526265863257876e-01
  6 -3.84883293400565402e-02
  7  7.89453417685506836e-02
  8 -8.12998094054786652e-02
  9 -7.71733662809761523e-02
 10  1.52007685716737617e-01
 11 -1.53904244239819077e-01
 12 -5.18414447502638653e-02
 13  1.71197582638187740e-01
 14 -2.03733415690823705e-01
 15 -5.66289132533182027e-03
 16 -2.35273070895849479e-02
 17  2.61139464813817668e-02
 18 -1.92159758376737877e-03
 19 -3.12200276709302671e-03
 20  5.70717300764604901e-03
 21 -7.19134111571761991e-04
 22  2.89756589968125609e-03
 23  3.31676476223343245e-04
 24 -2.83192187932776451e-03
 25 -1.62729817401430221e-02
 26  1.57438586355157506e-02
 27 -2.63329846169468862e-03
 28  7.31143366228848013e-03
 29  4.07189802377616594e-03
 30  2.32143288955686256e-02
 31  1.67610669483830854e-02
 32 -3.29051739024777135e-03
 33  1.59996523576353411e-02
 34 -2.80355199099240338e-02
 35  4.48094337159421485e-04
 36 -1.94913147399002062e-03
 37  3.85480698508028352e-03
 38 -3.91103505252975159e-03
 39  1.14201451473179560e-03
 40  3.44961510458158260e-03
 41 -3.90757091468352247e-03
 42 -2.65996037557199652e-03
 43  4.00277544907433336e-03
 44 -4.60677917769730660e-03
 45  1.38687775968204807e-05