o2_cc_pvtz_cart
SP        RHF                                                         CC-pVTZ
Number of atoms                            I                2
Charge                                     I                0
Multiplicity                               I                1
Number of electrons                        I               16
Number of alpha electrons                  I                8
Number of beta electrons                   I                8
Number of basis functions                  I               70
Number of contracted shells                I               20
Highest angular momentum                   I                3
Largest degree of contraction              I                7
Number of primitive shells                 I               48
Pure/Cartesian d shells                    I                1
Pure/Cartesian f shells                    I                1
SCF Energy                                 R     -1.495953594545721E+02
Total Energy                               R     -1.495953594545721E+02
RMS Density                                R      6.220699161529979E-06
Atomic numbers                             I   N=           2
           8           8
Nuclear charges                            R   N=           2
  8.00000000E+00  8.00000000E+00
Current cartesian coordinates              R   N=           6
  0.00000000E+00  0.00000000E+00  1.09122830E+00  1.33636924E-16  0.00000000E+00
 -1.09122830E+00
Integer atomic weights                     I   N=           2
          16          16
Real atomic weights                        R   N=           2
  1.59949146E+01  1.59949146E+01
Shell types                                I   N=          20
           0           0           0           0           1           1
           1           2           2           3           0           0
           0           0           1           1           1           2
           2           3
Number of primitives per shell             I   N=          20
           7           7           1           1           3           1
           1           1           1           1           7           7
           1           1           3           1           1           1
           1           1
Shell to atom map                          I   N=          20
           1           1           1           1           1           1
           1           1           1           1           2           2
           2           2           2           2           2           2
           2           2
Primitive exponents                        R   N=          48
  1.53300000E+04  2.29900000E+03  5.22400000E+02  1.47300000E+02  4.75500000E+01
  1.67600000E+01  6.20700000E+00  1.53300000E+04  2.29900000E+03  5.22400000E+02
  4.75500000E+01  1.67600000E+01  6.20700000E+00  6.88200000E-01  1.75200000E+00
  2.38400000E-01  3.44600000E+01  7.74900000E+00  2.28000000E+00  7.15600000E-01
  2.14000000E-01  2.31400000E+00  6.45000000E-01  1.42800000E+00  1.53300000E+04
  2.29900000E+03  5.22400000E+02  1.47300000E+02  4.75500000E+01  1.67600000E+01
  6.20700000E+00  1.53300000E+04  2.29900000E+03  5.22400000E+02  4.75500000E+01
  1.67600000E+01  6.20700000E+00  6.88200000E-01  1.75200000E+00  2.38400000E-01
  3.44600000E+01  7.74900000E+00  2.28000000E+00  7.15600000E-01  2.14000000E-01
  2.31400000E+00  6.45000000E-01  1.42800000E+00
Contraction coefficients                   R   N=          48
  5.19808943E-04  4.02025621E-03  2.07128267E-02  8.10105536E-02  2.35962985E-01
  4.42653446E-01  3.57064423E-01  9.13376623E-06  6.07362596E-05  2.68782282E-04
 -6.96940030E-03 -6.06456900E-02 -1.65519536E-01  1.07151369E+00  1.00000000E+00
  1.00000000E+00  4.11634896E-02  2.57762836E-01  8.02419274E-01  1.00000000E+00
  1.00000000E+00  1.00000000E+00  1.00000000E+00  1.00000000E+00  5.19808943E-04
  4.02025621E-03  2.07128267E-02  8.10105536E-02  2.35962985E-01  4.42653446E-01
  3.57064423E-01  9.13376623E-06  6.07362596E-05  2.68782282E-04 -6.96940030E-03
 -6.06456900E-02 -1.65519536E-01  1.07151369E+00  1.00000000E+00  1.00000000E+00
  4.11634896E-02  2.57762836E-01  8.02419274E-01  1.00000000E+00  1.00000000E+00
  1.00000000E+00  1.00000000E+00  1.00000000E+00
Coordinates of each shell                  R   N=          60
  0.00000000E+00  0.00000000E+00  1.09122830E+00  0.00000000E+00  0.00000000E+00
  1.09122830E+00  0.00000000E+00  0.00000000E+00  1.09122830E+00  0.00000000E+00
  0.00000000E+00  1.09122830E+00  0.00000000E+00  0.00000000E+00  1.09122830E+00
  0.00000000E+00  0.00000000E+00  1.09122830E+00  0.00000000E+00  0.00000000E+00
  1.09122830E+00  0.00000000E+00  0.00000000E+00  1.09122830E+00  0.00000000E+00
  0.00000000E+00  1.09122830E+00  0.00000000E+00  0.00000000E+00  1.09122830E+00
  1.33636924E-16  0.00000000E+00 -1.09122830E+00  1.33636924E-16  0.00000000E+00
 -1.09122830E+00  1.33636924E-16  0.00000000E+00 -1.09122830E+00  1.33636924E-16
  0.00000000E+00 -1.09122830E+00  1.33636924E-16  0.00000000E+00 -1.09122830E+00
  1.33636924E-16  0.00000000E+00 -1.09122830E+00  1.33636924E-16  0.00000000E+00
 -1.09122830E+00  1.33636924E-16  0.00000000E+00 -1.09122830E+00  1.33636924E-16
  0.00000000E+00 -1.09122830E+00  1.33636924E-16  0.00000000E+00 -1.09122830E+00
Alpha Orbital Energies                     R   N=          70
 -2.07299534E+01 -2.07287682E+01 -1.70510737E+00 -1.08490705E+00 -7.89804561E-01
 -7.54431433E-01 -6.77945371E-01 -4.47242368E-01  5.03839959E-02  4.31562804E-01
  5.29365454E-01  6.59191461E-01  6.59521039E-01  6.97714188E-01  7.68260050E-01
  7.87257645E-01  8.11755013E-01  1.08822897E+00  1.45632138E+00  1.45635070E+00
  1.59551368E+00  1.59915503E+00  1.92653008E+00  1.92676777E+00  2.19839913E+00
  2.34798772E+00  2.48527768E+00  2.50102176E+00  2.59208678E+00  2.75003331E+00
  3.18189058E+00  3.18383129E+00  3.63040122E+00  3.63067176E+00  3.63907618E+00
  4.96363929E+00  4.96367290E+00  5.03202110E+00  5.07123175E+00  5.30433880E+00
  5.30440342E+00  5.52609050E+00  5.53030811E+00  5.61880431E+00  5.61880996E+00
  6.08686023E+00  6.26343858E+00  6.26475659E+00  6.54550964E+00  6.54578683E+00
  6.76831628E+00  6.76887023E+00  6.77042820E+00  6.80241656E+00  6.89527789E+00
  6.94192350E+00  6.96289797E+00  7.00385523E+00  7.30462292E+00  7.34433422E+00
  7.38989648E+00  7.93882063E+00  7.99185742E+00  8.23495464E+00  8.47400403E+00
  1.09692162E+01  1.17298361E+01  1.52298140E+01  1.63735872E+01  1.65523786E+01
Alpha MO coefficients                      R   N=        4900
  6.90554673E-01 -1.09386989E-02  3.20682070E-02 -1.53516185E-03  0.00000000E+00
  0.00000000E+00 -1.73008060E-03  0.00000000E+00  0.00000000E+00  9.16667865E-04
  0.00000000E+00  0.00000000E+00 -1.69293658E-04  1.41588142E-03  1.12086835E-03
  1.68010837E-03  0.00000000E+00  0.00000000E+00  0.00000000E+00  2.62968033E-03
  2.48615569E-03  2.27955096E-03  0.00000000E+00  0.00000000E+00  0.00000000E+00
  0.00000000E+00  0.00000000E+00 -1.99877479E-04  0.00000000E+00  0.00000000E+00
 -1.51783365E-04  0.00000000E+00  0.00000000E+00 -2.27738098E-04  0.00000000E+00
  6.90554673E-01 -1.09386989E-02  3.20682070E-02 -1.53516185E-03  0.00000000E+00
  0.00000000E+00  1.73008060E-03  0.00000000E+00  0.00000000E+00 -9.16667865E-04
  0.00000000E+00  0.00000000E+00  1.69293658E-04  1.41588142E-03  1.12086835E-03
  1.68010837E-03  0.00000000E+00  0.00000000E+00  0.00000000E+00  2.62968033E-03
  2.48615569E-03  2.27955096E-03  0.00000000E+00  0.00000000E+00  0.00000000E+00
  0.00000000E+00  0.00000000E+00  1.99877479E-04  0.00000000E+00  0.00000000E+00
  1.51783365E-04  0.00000000E+00  0.00000000E+00  2.27738098E-04  0.00000000E+00
  6.90442982E-01 -1.32117618E-02  3.22453657E-02 -5.99903255E-03  0.00000000E+00
  0.00000000E+00 -2.10927294E-03  0.00000000E+00  0.00000000E+00  6.67341773E-03
  0.00000000E+00  0.00000000E+00  1.68334040E-03  1.76856264E-03  1.44188541E-03
  1.57657428E-03  0.00000000E+00  0.00000000E+00  0.00000000E+00  3.42930035E-03
  3.14869703E-03  4.73521279E-06  0.00000000E+00  0.00000000E+00  0.00000000E+00
  0.00000000E+00  0.00000000E+00 -9.56840374E-04  0.00000000E+00  0.00000000E+00
 -7.98933025E-04  0.00000000E+00  0.00000000E+00 -8.08887351E-04  0.00000000E+00
 -6.90442982E-01  1.32117618E-02 -3.22453657E-02  5.99903255E-03  0.00000000E+00
  0.00000000E+00 -2.10927294E-03  0.00000000E+00  0.00000000E+00  6.67341773E-03
  0.00000000E+00  0.00000000E+00  1.68334040E-03 -1.76856264E-03 -1.44188541E-03
 -1.57657428E-03  0.00000000E+00  0.00000000E+00  0.00000000E+00 -3.42930035E-03
 -3.14869703E-03 -4.73521279E-06  0.00000000E+00  0.00000000E+00  0.00000000E+00
  0.00000000E+00  0.00000000E+00 -9.56840374E-04  0.00000000E+00  0.00000000E+00
 -7.98933025E-04  0.00000000E+00  0.00000000E+00 -8.08887351E-04  0.00000000E+00
 -1.53089591E-01  3.48597927E-01  9.87762547E-02  1.35883463E-01  0.00000000E+00
  0.00000000E+00 -9.54552873E-02  0.00000000E+00  0.00000000E+00 -9.80215020E-02
  0.00000000E+00  0.00000000E+00 -2.01987754E-02 -3.69516465E-03 -3.83149036E-03
  1.46621640E-02  0.00000000E+00  0.00000000E+00  0.00000000E+00 -8.15464585E-03
 -4.43436747E-03  2.36590335E-02  0.00000000E+00  0.00000000E+00  0.00000000E+00
  0.00000000E+00  0.00000000E+00 -1.52089709E-02  0.00000000E+00  0.00000000E+00
  2.46441412E-03  0.00000000E+00  0.00000000E+00 -6.84307118E-04  0.00000000E+00
 -1.53089591E-01  3.48597927E-01  9.87762547E-02  1.35883463E-01  0.00000000E+00
  0.00000000E+00  9.54552873E-02  0.00000000E+00  0.00000000E+00  9.80215020E-02
  0.00000000E+00  0.00000000E+00  2.01987754E-02 -3.69516465E-03 -3.83149036E-03
  1.46621640E-02  0.00000000E+00  0.00000000E+00  0.00000000E+00 -8.15464585E-03
 -4.43436747E-03  2.36590335E-02  0.00000000E+00  0.00000000E+00  0.00000000E+00
  0.00000000E+00  0.00000000E+00  1.52089709E-02  0.00000000E+00  0.00000000E+00
 -2.46441412E-03  0.00000000E+00  0.00000000E+00  6.84307118E-04  0.00000000E+00
 -1.58288217E-01  3.92621006E-01  1.17733331E-01  3.11714044E-01  0.00000000E+00
  0.00000000E+00  9.20857130E-02  0.00000000E+00  0.00000000E+00  9.20811030E-02
  0.00000000E+00  0.00000000E+00  3.96201719E-02  4.11889639E-03  2.89031212E-03
 -3.12994043E-03  0.00000000E+00  0.00000000E+00  0.00000000E+00  1.12228601E-02
  6.15536506E-03 -2.68071451E-03  0.00000000E+00  0.00000000E+00  0.00000000E+00
  0.00000000E+00  0.00000000E+00  4.58873626E-03  0.00000000E+00  0.00000000E+00
  6.34692524E-04  0.00000000E+00  0.00000000E+00  1.84023264E-03  0.00000000E+00
  1.58288217E-01 -3.92621006E-01 -1.17733331E-01 -3.11714044E-01  0.00000000E+00
  0.00000000E+00  9.20857130E-02  0.00000000E+00  0.00000000E+00  9.20811030E-02
  0.00000000E+00  0.00000000E+00  3.96201719E-02 -4.11889639E-03 -2.89031212E-03
  3.12994043E-03  0.00000000E+00  0.00000000E+00  0.00000000E+00 -1.12228601E-02
 -6.15536506E-03  2.68071451E-03  0.00000000E+00  0.00000000E+00  0.00000000E+00
  0.00000000E+00  0.00000000E+00  4.58873626E-03  0.00000000E+00  0.00000000E+00
  6.34692524E-04  0.00000000E+00  0.00000000E+00  1.84023264E-03  0.00000000E+00
  0.00000000E+00  0.00000000E+00  0.00000000E+00  0.00000000E+00  2.61753806E-01
  0.00000000E+00  0.00000000E+00  3.25946272E-01  0.00000000E+00  0.00000000E+00
  1.72357063E-01  0.00000000E+00  0.00000000E+00  0.00000000E+00  0.00000000E+00
  0.00000000E+00  0.00000000E+00 -1.01006345E-02  0.00000000E+00  0.00000000E+00
  0.00000000E+00  0.00000000E+00  0.00000000E+00 -2.26703401E-02  0.00000000E+00
 -4.78689190E-03  0.00000000E+00  0.00000000E+00  1.94032945E-03  0.00000000E+00
  0.00000000E+00  8.78128079E-03  0.00000000E+00  0.00000000E+00  0.00000000E+00
  0.00000000E+00  0.00000000E+00  0.00000000E+00  0.00000000E+00  2.61753806E-01
  0.00000000E+00  0.00000000E+00  3.25946272E-01  0.00000000E+00  0.00000000E+00
  1.72357063E-01  0.00000000E+00  0.00000000E+00  0.00000000E+00  0.00000000E+00
  0.00000000E+00  0.00000000E+00  1.01006345E-02  0.00000000E+00  0.00000000E+00
  0.00000000E+00  0.00000000E+00  0.00000000E+00  2.26703401E-02  0.00000000E+00
 -4.78689190E-03  0.00000000E+00  0.00000000E+00  1.94032945E-03  0.00000000E+00
  0.00000000E+00  8.78128079E-03  0.00000000E+00  0.00000000E+00  0.00000000E+00
 -5.31861921E-02  1.40641211E-01  2.84510459E-02  2.66169414E-01  0.00000000E+00
  0.00000000E+00  2.58581019E-01  0.00000000E+00  0.00000000E+00  3.08668578E-01
  0.00000000E+00  0.00000000E+00  1.55953784E-01  3.97166475E-03  2.99076532E-03
 -1.76759724E-02  0.00000000E+00  0.00000000E+00  0.00000000E+00 -6.37445228E-03
 -8.19681224E-03 -4.40511884E-02  0.00000000E+00  0.00000000E+00  0.00000000E+00
  0.00000000E+00  0.00000000E+00  1.27897792E-02  0.00000000E+00  0.00000000E+00
 -4.11354818E-03  0.00000000E+00  0.00000000E+00 -5.78013139E-04  0.00000000E+00
 -5.31861921E-02  1.40641211E-01  2.84510459E-02  2.66169414E-01  0.00000000E+00
  0.00000000E+00 -2.58581019E-01  0.00000000E+00  0.00000000E+00 -3.08668578E-01
  0.00000000E+00  0.00000000E+00 -1.55953784E-01  3.97166475E-03  2.99076532E-03
 -1.76759724E-02  0.00000000E+00  0.00000000E+00  0.00000000E+00 -6.37445228E-03
 -8.19681224E-03 -4.40511884E-02  0.00000000E+00  0.00000000E+00  0.00000000E+00
  0.00000000E+00  0.00000000E+00 -1.27897792E-02  0.00000000E+00  0.00000000E+00
  4.11354818E-03  0.00000000E+00  0.00000000E+00  5.78013139E-04  0.00000000E+00
  0.00000000E+00  0.00000000E+00  0.00000000E+00  0.00000000E+00  0.00000000E+00
  2.36910906E-01  0.00000000E+00  0.00000000E+00  3.09305578E-01  0.00000000E+00
  0.00000000E+00  2.01456046E-01  0.00000000E+00  0.00000000E+00  0.00000000E+00
  0.00000000E+00  0.00000000E+00  0.00000000E+00 -1.19809748E-02  0.00000000E+00
  0.00000000E+00  0.00000000E+00  0.00000000E+00  0.00000000E+00 -4.12013902E-02
  0.00000000E+00 -1.84797712E-04  0.00000000E+00  0.00000000E+00 -4.10292650E-03
  0.00000000E+00  0.00000000E+00  8.87585295E-03  0.00000000E+00  0.00000000E+00
  0.00000000E+00  0.00000000E+00  0.00000000E+00  0.00000000E+00  0.00000000E+00
  2.36910906E-01  0.00000000E+00  0.00000000E+00  3.09305578E-01  0.00000000E+00
  0.00000000E+00  2.01456046E-01  0.00000000E+00  0.00000000E+00  0.00000000E+00
  0.00000000E+00  0.00000000E+00  0.00000000E+00  1.19809748E-02  0.00000000E+00
  0.00000000E+00  0.00000000E+00  0.00000000E+00  0.00000000E+00  4.12013902E-02
  0.00000000E+00 -1.84797712E-04  0.00000000E+00  0.00000000E+00 -4.10292650E-03
  0.00000000E+00  0.00000000E+00  8.87585295E-03  0.00000000E+00  0.00000000E+00
  0.00000000E+00  0.00000000E+00  0.00000000E+00  0.00000000E+00  3.00342181E-01
  0.00000000E+00  0.00000000E+00  3.68919874E-01  0.00000000E+00  0.00000000E+00
  3.43971474E-01  0.00000000E+00  0.00000000E+00  0.00000000E+00  0.00000000E+00
  0.00000000E+00  0.00000000E+00  3.26513154E-03  0.00000000E+00  0.00000000E+00
  0.00000000E+00  0.00000000E+00  0.00000000E+00  6.93027851E-03  0.00000000E+00
  2.86367526E-03  0.00000000E+00  0.00000000E+00  5.16442799E-03  0.00000000E+00
  0.00000000E+00  1.82927733E-03  0.00000000E+00  0.00000000E+00  0.00000000E+00
  0.00000000E+00  0.00000000E+00  0.00000000E+00  0.00000000E+00 -3.00342181E-01
  0.00000000E+00  0.00000000E+00 -3.68919874E-01  0.00000000E+00  0.00000000E+00
 -3.43971474E-01  0.00000000E+00  0.00000000E+00  0.00000000E+00  0.00000000E+00
  0.00000000E+00  0.00000000E+00  3.26513154E-03  0.00000000E+00  0.00000000E+00
  0.00000000E+00  0.00000000E+00  0.00000000E+00  6.93027851E-03  0.00000000E+00
 -2.86367526E-03  0.00000000E+00  0.00000000E+00 -5.16442799E-03  0.00000000E+00
  0.00000000E+00 -1.82927733E-03  0.00000000E+00  0.00000000E+00  0.00000000E+00
  0.00000000E+00  0.00000000E+00  0.00000000E+00  0.00000000E+00  0.00000000E+00
  2.69375107E-01  0.00000000E+00  0.00000000E+00  2.83726280E-01  0.00000000E+00
  0.00000000E+00  5.04491843E-01  0.00000000E+00  0.00000000E+00  0.00000000E+00
  0.00000000E+00  0.00000000E+00  0.00000000E+00  5.22419277E-03  0.00000000E+00
  0.00000000E+00  0.00000000E+00  0.00000000E+00  0.00000000E+00  5.96366731E-03
  0.00000000E+00  2.46622142E-02  0.00000000E+00  0.00000000E+00  7.33846244E-03
  0.00000000E+00  0.00000000E+00  8.04427392E-03  0.00000000E+00  0.00000000E+00
  0.00000000E+00  0.00000000E+00  0.00000000E+00  0.00000000E+00  0.00000000E+00
 -2.69375107E-01  0.00000000E+00  0.00000000E+00 -2.83726280E-01  0.00000000E+00
  0.00000000E+00 -5.04491843E-01  0.00000000E+00  0.00000000E+00  0.00000000E+00
  0.00000000E+00  0.00000000E+00  0.00000000E+00  5.22419277E-03  0.00000000E+00
  0.00000000E+00  0.00000000E+00  0.00000000E+00  0.00000000E+00  5.96366731E-03
  0.00000000E+00 -2.46622142E-02  0.00000000E+00  0.00000000E+00 -7.33846244E-03
  0.00000000E+00  0.00000000E+00 -8.04427392E-03  0.00000000E+00  0.00000000E+00
 -8.68489685E-02  2.03282265E-01  7.40918213E-02  2.50120089E+00  0.00000000E+00
  0.00000000E+00 -1.23601349E-01  0.00000000E+00  0.00000000E+00 -1.46972324E-01
  0.00000000E+00  0.00000000E+00 -2.01395016E+00  1.55211956E-02  1.61854306E-02
 -1.58934165E-02  0.00000000E+00  0.00000000E+00  0.00000000E+00 -2.64943965E-02
 -2.90018372E-02  2.23040232E-01  0.00000000E+00  0.00000000E+00  0.00000000E+00
  0.00000000E+00  0.00000000E+00 -9.28684528E-02  0.00000000E+00  0.00000000E+00
 -1.17917226E-02  0.00000000E+00  0.00000000E+00 -1.35316776E-02  0.00000000E+00
  8.68489685E-02 -2.03282265E-01 -7.40918213E-02 -2.50120089E+00  0.00000000E+00
  0.00000000E+00 -1.23601349E-01  0.00000000E+00  0.00000000E+00 -1.46972324E-01
  0.00000000E+00  0.00000000E+00 -2.01395016E+00 -1.55211956E-02 -1.61854306E-02
  1.58934165E-02  0.00000000E+00  0.00000000E+00  0.00000000E+00  2.64943965E-02
  2.90018372E-02 -2.23040232E-01  0.00000000E+00  0.00000000E+00  0.00000000E+00
  0.00000000E+00  0.00000000E+00 -9.28684528E-02  0.00000000E+00  0.00000000E+00
 -1.17917226E-02  0.00000000E+00  0.00000000E+00 -1.35316776E-02  0.00000000E+00
  7.61960199E-02 -1.23002241E-01 -5.71286100E-01  2.05270030E+00  0.00000000E+00
  0.00000000E+00 -5.03964724E-02  0.00000000E+00  0.00000000E+00 -1.55230230E-01
  0.00000000E+00  0.00000000E+00  6.56911703E-04 -9.48740681E-02 -9.76222129E-02
 -1.04270949E-01  0.00000000E+00  0.00000000E+00  0.00000000E+00 -6.87834189E-01
 -6.72768972E-01 -7.08867669E-01  0.00000000E+00  0.00000000E+00  0.00000000E+00
  0.00000000E+00  0.00000000E+00  3.37938247E-02  0.00000000E+00  0.00000000E+00
  1.01298956E-03  0.00000000E+00  0.00000000E+00 -2.43001764E-04  0.00000000E+00
  7.61960199E-02 -1.23002241E-01 -5.71286100E-01  2.05270030E+00  0.00000000E+00
  0.00000000E+00  5.03964724E-02  0.00000000E+00  0.00000000E+00  1.55230230E-01
  0.00000000E+00  0.00000000E+00 -6.56911703E-04 -9.48740681E-02 -9.76222129E-02
 -1.04270949E-01  0.00000000E+00  0.00000000E+00  0.00000000E+00 -6.87834189E-01
 -6.72768972E-01 -7.08867669E-01  0.00000000E+00  0.00000000E+00  0.00000000E+00
  0.00000000E+00  0.00000000E+00 -3.37938247E-02  0.00000000E+00  0.00000000E+00
 -1.01298956E-03  0.00000000E+00  0.00000000E+00  2.43001764E-04  0.00000000E+00
  0.00000000E+00  0.00000000E+00  0.00000000E+00  0.00000000E+00  5.57326510E-02
  0.00000000E+00  0.00000000E+00  1.03545342E+00  0.00000000E+00  0.00000000E+00
 -7.93226181E-01  0.00000000E+00  0.00000000E+00  0.00000000E+00  0.00000000E+00
  0.00000000E+00  0.00000000E+00 -4.26659870E-03  0.00000000E+00  0.00000000E+00
  0.00000000E+00  0.00000000E+00  0.00000000E+00 -4.59490492E-02  0.00000000E+00
 -2.68307712E-01  0.00000000E+00  0.00000000E+00 -1.18681972E-01  0.00000000E+00
  0.00000000E+00 -1.17185886E-01  0.00000000E+00  0.00000000E+00  0.00000000E+00
  0.00000000E+00  0.00000000E+00  0.00000000E+00  0.00000000E+00  5.57326510E-02
  0.00000000E+00  0.00000000E+00  1.03545342E+00  0.00000000E+00  0.00000000E+00
 -7.93226181E-01  0.00000000E+00  0.00000000E+00  0.00000000E+00  0.00000000E+00
  0.00000000E+00  0.00000000E+00  4.26659870E-03  0.00000000E+00  0.00000000E+00
  0.00000000E+00  0.00000000E+00  0.00000000E+00  4.59490492E-02  0.00000000E+00
 -2.68307712E-01  0.00000000E+00  0.00000000E+00 -1.18681972E-01  0.00000000E+00
  0.00000000E+00 -1.17185886E-01  0.00000000E+00  0.00000000E+00  0.00000000E+00
  0.00000000E+00  0.00000000E+00  0.00000000E+00  0.00000000E+00  0.00000000E+00
  5.58468364E-02  0.00000000E+00  0.00000000E+00  1.06205772E+00  0.00000000E+00
  0.00000000E+00 -7.87821670E-01  0.00000000E+00  0.00000000E+00  0.00000000E+00
  0.00000000E+00  0.00000000E+00  0.00000000E+00 -5.80843635E-03  0.00000000E+00
  0.00000000E+00  0.00000000E+00  0.00000000E+00  0.00000000E+00 -5.84624532E-02
  0.00000000E+00 -2.70800486E-01  0.00000000E+00  0.00000000E+00 -1.22613528E-01
  0.00000000E+00  0.00000000E+00 -1.18229568E-01  0.00000000E+00  0.00000000E+00
  0.00000000E+00  0.00000000E+00  0.00000000E+00  0.00000000E+00  0.00000000E+00
  5.58468364E-02  0.00000000E+00  0.00000000E+00  1.06205772E+00  0.00000000E+00
  0.00000000E+00 -7.87821670E-01  0.00000000E+00  0.00000000E+00  0.00000000E+00
  0.00000000E+00  0.00000000E+00  0.00000000E+00  5.80843635E-03  0.00000000E+00
  0.00000000E+00  0.00000000E+00  0.00000000E+00  0.00000000E+00  5.84624532E-02
  0.00000000E+00 -2.70800486E-01  0.00000000E+00  0.00000000E+00 -1.22613528E-01
  0.00000000E+00  0.00000000E+00 -1.18229568E-01  0.00000000E+00  0.00000000E+00
  1.28221334E-02  6.23555294E-02  5.73504922E-02  9.00959996E-02  0.00000000E+00
  0.00000000E+00 -1.33022185E-02  0.00000000E+00  0.00000000E+00 -8.94311290E-01
  0.00000000E+00  0.00000000E+00  1.14806735E+00 -1.13135852E-02 -1.04460123E-02
  2.94961731E-02  0.00000000E+00  0.00000000E+00  0.00000000E+00  6.99836590E-02
  5.76374380E-02  6.48456947E-02  0.00000000E+00  0.00000000E+00  0.00000000E+00
  0.00000000E+00  0.00000000E+00  2.23073354E-01  0.00000000E+00  0.00000000E+00
  1.04326207E-01  0.00000000E+00  0.00000000E+00  1.04288104E-01  0.00000000E+00
  1.28221334E-02  6.23555294E-02  5.73504922E-02  9.00959996E-02  0.00000000E+00
  0.00000000E+00  1.33022185E-02  0.00000000E+00  0.00000000E+00  8.94311290E-01
  0.00000000E+00  0.00000000E+00 -1.14806735E+00 -1.13135852E-02 -1.04460123E-02
  2.94961731E-02  0.00000000E+00  0.00000000E+00  0.00000000E+00  6.99836590E-02
  5.76374380E-02  6.48456947E-02  0.00000000E+00  0.00000000E+00  0.00000000E+00
  0.00000000E+00  0.00000000E+00 -2.23073354E-01  0.00000000E+00  0.00000000E+00
 -1.04326207E-01  0.00000000E+00  0.00000000E+00 -1.04288104E-01  0.00000000E+00
 -3.01425077E-02  5.49746202E-02 -2.84810421E-01  1.31047408E+00  0.00000000E+00
  0.00000000E+00 -2.95329056E-01  0.00000000E+00  0.00000000E+00 -5.05732011E-01
  0.00000000E+00  0.00000000E+00  3.39732031E-01 -4.67315307E-02 -4.80520163E-02
 -5.30646951E-02  0.00000000E+00  0.00000000E+00  0.00000000E+00 -3.10451564E-01
 -3.09770821E-01 -7.42263074E-01  0.00000000E+00  0.00000000E+00  0.00000000E+00
  0.00000000E+00  0.00000000E+00  1.16082479E-01  0.00000000E+00  0.00000000E+00
  2.15768477E-02  0.00000000E+00  0.00000000E+00  1.75690849E-02  0.00000000E+00
  3.01425077E-02 -5.49746202E-02  2.84810421E-01 -1.31047408E+00  0.00000000E+00
  0.00000000E+00 -2.95329056E-01  0.00000000E+00  0.00000000E+00 -5.05732011E-01
  0.00000000E+00  0.00000000E+00  3.39732031E-01  4.67315307E-02  4.80520163E-02
  5.30646951E-02  0.00000000E+00  0.00000000E+00  0.00000000E+00  3.10451564E-01
  3.09770821E-01  7.42263074E-01  0.00000000E+00  0.00000000E+00  0.00000000E+00
  0.00000000E+00  0.00000000E+00  1.16082479E-01  0.00000000E+00  0.00000000E+00
  2.15768477E-02  0.00000000E+00  0.00000000E+00  1.75690849E-02  0.00000000E+00
  0.00000000E+00  0.00000000E+00  0.00000000E+00  0.00000000E+00 -7.05316782E-02
  0.00000000E+00  0.00000000E+00 -1.02737357E+00  0.00000000E+00  0.00000000E+00
  1.46244748E+00  0.00000000E+00  0.00000000E+00  0.00000000E+00  0.00000000E+00
  0.00000000E+00  0.00000000E+00  1.52162739E-02  0.00000000E+00  0.00000000E+00
  0.00000000E+00  0.00000000E+00  0.00000000E+00 -5.34508085E-02  0.00000000E+00
  2.46419190E-01  0.00000000E+00  0.00000000E+00  1.08622182E-01  0.00000000E+00
  0.00000000E+00  1.21502920E-01  0.00000000E+00  0.00000000E+00  0.00000000E+00
  0.00000000E+00  0.00000000E+00  0.00000000E+00  0.00000000E+00  7.05316782E-02
  0.00000000E+00  0.00000000E+00  1.02737357E+00  0.00000000E+00  0.00000000E+00
 -1.46244748E+00  0.00000000E+00  0.00000000E+00  0.00000000E+00  0.00000000E+00
  0.00000000E+00  0.00000000E+00  1.52162739E-02  0.00000000E+00  0.00000000E+00
  0.00000000E+00  0.00000000E+00  0.00000000E+00 -5.34508085E-02  0.00000000E+00
 -2.46419190E-01  0.00000000E+00  0.00000000E+00 -1.08622182E-01  0.00000000E+00
  0.00000000E+00 -1.21502920E-01  0.00000000E+00  0.00000000E+00  0.00000000E+00
  0.00000000E+00  0.00000000E+00  0.00000000E+00  0.00000000E+00  0.00000000E+00
 -9.47658557E-02  0.00000000E+00  0.00000000E+00 -1.08879494E+00  0.00000000E+00
  0.00000000E+00  1.42062429E+00  0.00000000E+00  0.00000000E+00  0.00000000E+00
  0.00000000E+00  0.00000000E+00  0.00000000E+00  1.42978842E-02  0.00000000E+00
  0.00000000E+00  0.00000000E+00  0.00000000E+00  0.00000000E+00 -6.02573246E-02
  0.00000000E+00  2.47449305E-01  0.00000000E+00  0.00000000E+00  1.12741896E-01
  0.00000000E+00  0.00000000E+00  1.24783241E-01  0.00000000E+00  0.00000000E+00
  0.00000000E+00  0.00000000E+00  0.00000000E+00  0.00000000E+00  0.00000000E+00
  9.47658557E-02  0.00000000E+00  0.00000000E+00  1.08879494E+00  0.00000000E+00
  0.00000000E+00 -1.42062429E+00  0.00000000E+00  0.00000000E+00  0.00000000E+00
  0.00000000E+00  0.00000000E+00  0.00000000E+00  1.42978842E-02  0.00000000E+00
  0.00000000E+00  0.00000000E+00  0.00000000E+00  0.00000000E+00 -6.02573246E-02
  0.00000000E+00 -2.47449305E-01  0.00000000E+00  0.00000000E+00 -1.12741896E-01
  0.00000000E+00  0.00000000E+00 -1.24783241E-01  0.00000000E+00  0.00000000E+00
  4.75836101E-02 -4.73133500E-01 -1.06224819E+00  9.86403121E+00  0.00000000E+00
  0.00000000E+00  1.29340989E-01  0.00000000E+00  0.00000000E+00  8.21704905E-02
  0.00000000E+00  0.00000000E+00 -3.67842945E+00 -1.29581231E-01 -1.32567717E-01
 -1.47075016E-01  0.00000000E+00  0.00000000E+00  0.00000000E+00 -1.32882066E+00
 -1.31874546E+00 -8.51313875E-01  0.00000000E+00  0.00000000E+00  0.00000000E+00
  0.00000000E+00  0.00000000E+00 -1.27592237E-01  0.00000000E+00  0.00000000E+00
  2.29334170E-02  0.00000000E+00  0.00000000E+00  2.43641374E-02  0.00000000E+00
 -4.75836101E-02  4.73133500E-01  1.06224819E+00 -9.86403121E+00  0.00000000E+00
  0.00000000E+00  1.29340989E-01  0.00000000E+00  0.00000000E+00  8.21704905E-02
  0.00000000E+00  0.00000000E+00 -3.67842945E+00  1.29581231E-01  1.32567717E-01
  1.47075016E-01  0.00000000E+00  0.00000000E+00  0.00000000E+00  1.32882066E+00
  1.31874546E+00  8.51313875E-01  0.00000000E+00  0.00000000E+00  0.00000000E+00
  0.00000000E+00  0.00000000E+00 -1.27592237E-01  0.00000000E+00  0.00000000E+00
  2.29334170E-02  0.00000000E+00  0.00000000E+00  2.43641374E-02  0.00000000E+00
  0.00000000E+00  0.00000000E+00  0.00000000E+00  0.00000000E+00  0.00000000E+00
  0.00000000E+00  0.00000000E+00  0.00000000E+00  0.00000000E+00  0.00000000E+00
  0.00000000E+00  0.00000000E+00  0.00000000E+00  0.00000000E+00  0.00000000E+00
  0.00000000E+00 -8.19993731E-03  0.00000000E+00  0.00000000E+00  0.00000000E+00
  0.00000000E+00  0.00000000E+00  6.43071188E-01  0.00000000E+00  0.00000000E+00
  0.00000000E+00  0.00000000E+00  0.00000000E+00  0.00000000E+00  0.00000000E+00
  0.00000000E+00  0.00000000E+00  0.00000000E+00  0.00000000E+00 -1.55954495E-02
  0.00000000E+00  0.00000000E+00  0.00000000E+00  0.00000000E+00  0.00000000E+00
  0.00000000E+00  0.00000000E+00  0.00000000E+00  0.00000000E+00  0.00000000E+00
  0.00000000E+00  0.00000000E+00  0.00000000E+00  0.00000000E+00  0.00000000E+00
  0.00000000E+00 -8.19993731E-03  0.00000000E+00  0.00000000E+00  0.00000000E+00
  0.00000000E+00  0.00000000E+00  6.43071188E-01  0.00000000E+00  0.00000000E+00
  0.00000000E+00  0.00000000E+00  0.00000000E+00  0.00000000E+00  0.00000000E+00
  0.00000000E+00  0.00000000E+00  0.00000000E+00  0.00000000E+00  1.55954495E-02
  1.79989618E-03 -2.28231177E-02  1.70974145E-02 -6.71284771E-02  0.00000000E+00
  0.00000000E+00  4.39067991E-03  0.00000000E+00  0.00000000E+00 -1.98535324E-02
  0.00000000E+00  0.00000000E+00  2.38763496E-02  1.19156250E-02 -2.40033668E-03
  5.88766555E-03  0.00000000E+00  0.00000000E+00  0.00000000E+00 -5.14540907E-01
  5.98893384E-01  2.72451332E-02  0.00000000E+00  0.00000000E+00  0.00000000E+00
  0.00000000E+00  0.00000000E+00  7.22156879E-03  0.00000000E+00  0.00000000E+00
  1.60589303E-02  0.00000000E+00  0.00000000E+00 -1.09656393E-02  0.00000000E+00
  1.79989618E-03 -2.28231177E-02  1.70974145E-02 -6.71284771E-02  0.00000000E+00
  0.00000000E+00 -4.39067991E-03  0.00000000E+00  0.00000000E+00  1.98535324E-02
  0.00000000E+00  0.00000000E+00 -2.38763496E-02  1.19156250E-02 -2.40033668E-03
  5.88766555E-03  0.00000000E+00  0.00000000E+00  0.00000000E+00 -5.14540907E-01
  5.98893384E-01  2.72451332E-02  0.00000000E+00  0.00000000E+00  0.00000000E+00
  0.00000000E+00  0.00000000E+00 -7.22156879E-03  0.00000000E+00  0.00000000E+00
 -1.60589303E-02  0.00000000E+00  0.00000000E+00  1.09656393E-02  0.00000000E+00
  0.00000000E+00  0.00000000E+00  0.00000000E+00  0.00000000E+00  0.00000000E+00
  7.76415468E-02  0.00000000E+00  0.00000000E+00  2.69436517E-01  0.00000000E+00
  0.00000000E+00 -5.53401318E-02  0.00000000E+00  0.00000000E+00  0.00000000E+00
  0.00000000E+00  0.00000000E+00  0.00000000E+00  1.04936232E-02  0.00000000E+00
  0.00000000E+00  0.00000000E+00  0.00000000E+00  0.00000000E+00  5.99537260E-01
  0.00000000E+00 -4.15669676E-02  0.00000000E+00  0.00000000E+00 -1.89744478E-02
  0.00000000E+00  0.00000000E+00 -1.44984514E-03  0.00000000E+00  0.00000000E+00
  0.00000000E+00  0.00000000E+00  0.00000000E+00  0.00000000E+00  0.00000000E+00
  7.76415468E-02  0.00000000E+00  0.00000000E+00  2.69436517E-01  0.00000000E+00