 O2 m=3 uhf/6-311+g*
GAUSSIAN             88 MOL ORBITALS     72 PRIMITIVES        2 NUCLEI
  O    1    (CENTRE  1)   0.00000000  0.00000000  1.09452498  CHARGE =  8.0
  O    2    (CENTRE  2)   0.00000000  0.00000000 -1.09452498  CHARGE =  8.0
CENTRE ASSIGNMENTS    1  1  1  1  1  1  1  1  1  1  1  1  1  1  1  1  1  1  1  1
CENTRE ASSIGNMENTS    1  1  1  1  1  1  1  1  1  1  1  1  1  1  1  1  2  2  2  2
CENTRE ASSIGNMENTS    2  2  2  2  2  2  2  2  2  2  2  2  2  2  2  2  2  2  2  2
CENTRE ASSIGNMENTS    2  2  2  2  2  2  2  2  2  2  2  2
TYPE ASSIGNMENTS      1  1  1  1  1  1  1  1  1  2  2  2  3  3  3  4  4  4  1  2
TYPE ASSIGNMENTS      3  4  1  2  3  4  1  2  3  4  5  6  7  8  9 10  1  1  1  1
TYPE ASSIGNMENTS      1  1  1  1  1  2  2  2  3  3  3  4  4  4  1  2  3  4  1  2
TYPE ASSIGNMENTS      3  4  1  2  3  4  5  6  7  8  9 10
EXPONENTS  0.8588500D+04 0.1297230D+04 0.2992960D+03 0.8737710D+02 0.2567890D+02
EXPONENTS  0.3740040D+01 0.4211750D+02 0.9628370D+01 0.2853320D+01 0.4211750D+02
EXPONENTS  0.9628370D+01 0.2853320D+01 0.4211750D+02 0.9628370D+01 0.2853320D+01
EXPONENTS  0.4211750D+02 0.9628370D+01 0.2853320D+01 0.9056610D+00 0.9056610D+00
EXPONENTS  0.9056610D+00 0.9056610D+00 0.2556110D+00 0.2556110D+00 0.2556110D+00
EXPONENTS  0.2556110D+00 0.8450000D-01 0.8450000D-01 0.8450000D-01 0.8450000D-01
EXPONENTS  0.1292000D+01 0.1292000D+01 0.1292000D+01 0.1292000D+01 0.1292000D+01
EXPONENTS  0.1292000D+01 0.8588500D+04 0.1297230D+04 0.2992960D+03 0.8737710D+02
EXPONENTS  0.2567890D+02 0.3740040D+01 0.4211750D+02 0.9628370D+01 0.2853320D+01
EXPONENTS  0.4211750D+02 0.9628370D+01 0.2853320D+01 0.4211750D+02 0.9628370D+01
EXPONENTS  0.2853320D+01 0.4211750D+02 0.9628370D+01 0.2853320D+01 0.9056610D+00
EXPONENTS  0.9056610D+00 0.9056610D+00 0.9056610D+00 0.2556110D+00 0.2556110D+00
EXPONENTS  0.2556110D+00 0.2556110D+00 0.8450000D-01 0.8450000D-01 0.8450000D-01
EXPONENTS  0.8450000D-01 0.1292000D+01 0.1292000D+01 0.1292000D+01 0.1292000D+01
EXPONENTS  0.1292000D+01 0.1292000D+01
MO    1     MO 0.0        OCC NO =    1.0000000  ORB. ENERGY =  -20.752000
  0.46934964D+00  0.86320646D+00  0.14128841D+01  0.19040405D+01  0.18835016D+01
  0.20963910D+00  0.44743724D+00  0.11960201D+01 -0.17082730D-02 -0.22384077D-13
 -0.22982753D-13 -0.17369070D-13 -0.86194468D-13 -0.88499795D-13 -0.66883159D-13
 -0.85611651D-02 -0.87901390D-02 -0.66430917D-02  0.35006466D-02  0.19040455D-14
  0.68864113D-14  0.38266839D-03 -0.23132334D-03  0.13159928D-15  0.51081774D-15
 -0.26105304D-04  0.37236695D-04 -0.13624077D-16 -0.36713880D-16 -0.40752016D-05
  0.33050908D-03  0.33050908D-03 -0.66101816D-03 -0.28099727D-12 -0.27260205D-13
 -0.10562086D-12  0.46945242D+00  0.86339550D+00  0.14131935D+01  0.19044575D+01
  0.18839141D+01  0.20968501D+00  0.44753525D+00  0.11962821D+01 -0.17086472D-02
  0.22148515D-13  0.22740892D-13  0.17186285D-13  0.89770332D-13  0.92171297D-13
  0.69657873D-13  0.85629046D-02  0.87919250D-02  0.66444415D-02  0.35013794D-02
 -0.18287527D-14 -0.77586343D-14 -0.38293160D-03 -0.23144673D-03 -0.13590695D-15
 -0.40388989D-15  0.26083258D-04  0.37381785D-04  0.13765983D-16  0.26318966D-16
  0.41000063D-05  0.33067900D-03  0.33067900D-03 -0.66135799D-03  0.28136738D-12
 -0.27704075D-13 -0.10695448D-12
MO    2     MO 0.0        OCC NO =    1.0000000  ORB. ENERGY =  -20.751162
  0.46950879D+00  0.86349916D+00  0.14133632D+01  0.19046861D+01  0.18841402D+01
  0.20971019D+00  0.44768803D+00  0.11966905D+01 -0.17092305D-02 -0.18930055D-13
 -0.19436351D-13 -0.14688899D-13 -0.74967313D-13 -0.76972362D-13 -0.58171374D-13
 -0.79481409D-02 -0.81607190D-02 -0.61674116D-02  0.33495886D-02  0.65166321D-15
  0.27120729D-14  0.12019935D-02 -0.56417559D-03 -0.52612548D-16 -0.32061616D-15
  0.10085234D-03  0.66327123D-03 -0.68746049D-17  0.22873528D-16 -0.11339630D-03
  0.77572038D-03  0.77572038D-03 -0.15514408D-02 -0.26037754D-12 -0.19184340D-13
 -0.75935158D-13 -0.46940601D+00 -0.86331014D+00 -0.14130538D+01 -0.19042692D+01
 -0.18837278D+01 -0.20966428D+00 -0.44759006D+00 -0.11964286D+01  0.17088565D-02
 -0.20066909D-13 -0.20603611D-13 -0.15571049D-13 -0.78554694D-13 -0.80655690D-13
 -0.60955025D-13 -0.79462655D-02 -0.81587935D-02 -0.61659564D-02 -0.33488217D-02
  0.10995796D-14  0.39545239D-14  0.12019097D-02  0.56412486D-03 -0.19856307D-15
 -0.64730141D-15  0.10085805D-03 -0.66326305D-03  0.44175668D-16  0.12274289D-15
 -0.11339540D-03 -0.77564801D-03 -0.77564801D-03  0.15512960D-02 -0.26032232D-12
  0.19175210D-13  0.76162186D-13
MO    3     MO 0.0        OCC NO =    1.0000000  ORB. ENERGY =   -1.770738
 -0.10363403D+00 -0.19059899D+00 -0.31196972D+00 -0.42041877D+00 -0.41588371D+00
 -0.46289044D-01 -0.19298553D+00 -0.51585910D+00  0.73680047D-03  0.23469083D-12
  0.24096779D-12  0.18210988D-12  0.92767707D-12  0.95248839D-12  0.71983705D-12
 -0.38580322D+00 -0.39612177D+00 -0.29936652D+00  0.28343161D+00  0.48654776D-13
  0.19386489D-12 -0.14805027D+00  0.55446218D-01 -0.13352465D-13 -0.53090955D-13
 -0.57187128D-02 -0.18220190D-02  0.10545553D-14  0.41739211D-14  0.55820212D-03
 -0.22590450D-01 -0.22590450D-01  0.45180899D-01 -0.10997810D-10 -0.69300764D-12
 -0.27499552D-11 -0.10363405D+00 -0.19059902D+00 -0.31196976D+00 -0.42041882D+00
 -0.41588376D+00 -0.46289049D-01 -0.19298555D+00 -0.51585916D+00  0.73680056D-03
 -0.23430013D-12 -0.24056664D-12 -0.18180671D-12 -0.92782466D-12 -0.95263993D-12
 -0.71995158D-12  0.38580320D+00  0.39612176D+00  0.29936650D+00  0.28343165D+00
 -0.48759350D-13 -0.19402340D-12  0.14805027D+00  0.55446229D-01  0.13368443D-13
  0.53084554D-13  0.57187134D-02 -0.18220205D-02 -0.10560119D-14 -0.41731939D-14
 -0.55820238D-03 -0.22590447D-01 -0.22590447D-01  0.45180895D-01  0.10997827D-10
 -0.69291206D-12 -0.27496309D-11
MO    4     MO 0.0        OCC NO =    1.0000000  ORB. ENERGY =   -1.191766
 -0.10807148D+00 -0.19876014D+00 -0.32532777D+00 -0.43842043D+00 -0.43369118D+00
 -0.48271067D-01 -0.20334511D+00 -0.54355073D+00  0.77635237D-03 -0.18928072D-11
 -0.19434316D-11 -0.14687361D-11 -0.75010803D-11 -0.77017015D-11 -0.58205120D-11
  0.37137620D+00  0.38130889D+00  0.28817178D+00  0.30567724D+00 -0.75997824D-12
 -0.30133861D-11  0.12031986D+00  0.12345541D+00 -0.64436652D-13 -0.25515687D-12
 -0.24314280D-02 -0.20858151D-01  0.10215557D-14  0.40057773D-14  0.39571811D-02
  0.22564987D-01  0.22564987D-01 -0.45129974D-01 -0.14422813D-10 -0.88622001D-12
 -0.35132651D-11  0.10807147D+00  0.19876013D+00  0.32532776D+00  0.43842041D+00
  0.43369117D+00  0.48271065D-01  0.20334510D+00  0.54355071D+00 -0.77635234D-03
 -0.18916618D-11 -0.19422555D-11 -0.14678472D-11 -0.75003335D-11 -0.77009348D-11
 -0.58199326D-11  0.37137642D+00  0.38130912D+00  0.28817195D+00 -0.30567723D+00
 -0.76032414D-12 -0.30132866D-11  0.12031994D+00 -0.12345541D+00 -0.64396292D-13
 -0.25513319D-12 -0.24314207D-02  0.20858151D-01  0.10165326D-14  0.40038973D-14
  0.39571808D-02 -0.22564997D-01 -0.22564997D-01  0.45129994D-01 -0.14422497D-10
  0.88664683D-12  0.35133412D-11
MO    5     MO 0.0        OCC NO =    1.0000000  ORB. ENERGY =   -0.867505
  0.11082853D-15  0.20383079D-15  0.33362734D-15  0.44960516D-15  0.44475526D-15
  0.49502530D-16  0.21044373D-15  0.56252568D-15 -0.80345425D-18  0.11753926D+01
  0.12068292D+01  0.91205354D+00 -0.29671635D+00 -0.30465222D+00 -0.23023898D+00
  0.10816461D-14  0.11105754D-14  0.83931034D-15 -0.31651076D-15  0.41936425D+00
 -0.10586440D+00  0.42770322D-15 -0.19805540D-15  0.54002637D-01 -0.13632437D-01
  0.11835860D-15  0.57383928D-15 -0.15372886D-03  0.38807346D-04 -0.13708110D-15
 -0.18752658D-12  0.18756979D-12 -0.43213043D-16 -0.69463822D-12 -0.11174719D+00
  0.28209484D-01 -0.12298043D-15 -0.22618001D-15 -0.37020822D-15 -0.49890253D-15
 -0.49352086D-15 -0.54930281D-16 -0.23983147D-15 -0.64108046D-15  0.91565387D-18
  0.11753930D+01  0.12068296D+01  0.91205381D+00 -0.29671644D+00 -0.30465231D+00
 -0.23023905D+00  0.20628681D-15  0.21180409D-15  0.16006959D-15  0.36823224D-15
  0.41936437D+00 -0.10586443D+00  0.24675217D-15  0.25231105D-15  0.54002656D-01
 -0.13632442D-01 -0.73864001D-17 -0.58738978D-15 -0.15372880D-03  0.38807330D-04
 -0.10604245D-15  0.18704706D-12 -0.18702636D-12 -0.20706888D-16  0.69315097D-12
  0.11174719D+00 -0.28209483D-01
MO    6     MO 0.0        OCC NO =    1.0000000  ORB. ENERGY =   -0.867505
 -0.87292909D-12 -0.16054514D-11 -0.26277801D-11 -0.35412669D-11 -0.35030672D-11
 -0.38990138D-12 -0.16796800D-11 -0.44898611D-11  0.64128591D-14  0.29671635D+00
  0.30465222D+00  0.23023898D+00  0.11753926D+01  0.12068292D+01  0.91205354D+00
 -0.48904971D-11 -0.50212966D-11 -0.37948131D-11  0.26597764D-11  0.10586440D+00
  0.41936425D+00 -0.24914378D-11  0.13135605D-11  0.13632437D-01  0.54002637D-01
 -0.35695705D-12 -0.24495621D-12 -0.38807346D-04 -0.15372886D-03  0.58030200D-13
  0.33257026D-12 -0.36129013D-12  0.28719871D-13 -0.37361662D-12 -0.28209484D-01
 -0.11174719D+00  0.87295951D-12  0.16055073D-11  0.26278716D-11  0.35413903D-11
  0.35031893D-11  0.38991496D-12  0.16797410D-11  0.44900242D-11 -0.64130922D-14
  0.29671644D+00  0.30465231D+00  0.23023905D+00  0.11753930D+01  0.12068296D+01
  0.91205381D+00 -0.48893148D-11 -0.50200827D-11 -0.37938956D-11 -0.26599395D-11
  0.10586443D+00  0.41936437D+00 -0.24910554D-11 -0.13136015D-11  0.13632442D-01
  0.54002656D-01 -0.35687980D-12  0.24496255D-12 -0.38807330D-04 -0.15372880D-03
  0.58038961D-13 -0.33327099D-12  0.36191817D-12 -0.28647181D-13  0.37517989D-12
  0.28209483D-01  0.11174719D+00
MO    7     MO 0.0        OCC NO =    1.0000000  ORB. ENERGY =   -0.786591
 -0.33110930D-01 -0.60896113D-01 -0.99673893D-01 -0.13432321D+00 -0.13287427D+00
 -0.14789285D-01 -0.62587307D-01 -0.16729872D+00  0.23895241D-03 -0.69977594D-11
 -0.71849190D-11 -0.54299570D-11 -0.27734078D-10 -0.28475844D-10 -0.21520438D-10
  0.11769604D+01  0.12084390D+01  0.91327007D+00  0.91743013D-01 -0.24758131D-11
 -0.98122480D-11  0.42468789D+00  0.52341287D-01 -0.38507365D-12 -0.15261355D-11
  0.49061851D-01  0.31715027D-02  0.35690843D-14  0.14158050D-13 -0.79600463D-03
  0.42795993D-01  0.42795993D-01 -0.85591986D-01 -0.66881998D-11 -0.74121662D-12
 -0.29396792D-11 -0.33110913D-01 -0.60896081D-01 -0.99673841D-01 -0.13432314D+00
 -0.13287420D+00 -0.14789277D-01 -0.62587274D-01 -0.16729863D+00  0.23895229D-03
  0.69959954D-11  0.71831078D-11  0.54285881D-11  0.27732341D-10  0.28474060D-10
  0.21519090D-10 -0.11769604D+01 -0.12084390D+01 -0.91327008D+00  0.91742965D-01
  0.24758772D-11  0.98135010D-11 -0.42468789D+00  0.52341263D-01  0.38501803D-12
  0.15261280D-11 -0.49061854D-01  0.31715057D-02 -0.35673791D-14 -0.14151952D-13
  0.79600529D-03  0.42795989D-01  0.42795989D-01 -0.85591977D-01  0.66878948D-11
 -0.74142446D-12 -0.29402077D-11
MO    8     MO 0.0        OCC NO =    1.0000000  ORB. ENERGY =   -0.541368
  0.20227991D-12  0.37202398D-12  0.60892357D-12  0.82060174D-12  0.81174990D-12
  0.90350081D-13  0.37212477D-12  0.99470645D-12 -0.14207371D-14  0.11223249D+01
  0.11523422D+01  0.87087533D+00 -0.81027030D+00 -0.83194150D+00 -0.62873451D+00
 -0.78763356D-11 -0.80869933D-11 -0.61116939D-11 -0.50232411D-12  0.39434085D+00
 -0.28469712D+00 -0.29225308D-11 -0.34297460D-12  0.74364418D-01 -0.53687909D-01
 -0.40454623D-12 -0.88074382D-13  0.15740821D-02 -0.11364195D-02 -0.76449507D-14
 -0.80993238D-12  0.90115342D-13  0.71981704D-12 -0.75513422D-12  0.22077748D-01
 -0.15939184D-01  0.20224900D-12  0.37196714D-12  0.60883054D-12  0.82047636D-12
  0.81162588D-12  0.90336276D-13  0.37207285D-12  0.99456767D-12 -0.14205389D-14
 -0.11223247D+01 -0.11523420D+01 -0.87087517D+00  0.81027015D+00  0.83194135D+00
  0.62873439D+00  0.78762492D-11  0.80869046D-11  0.61116268D-11 -0.50225491D-12
 -0.39434077D+00  0.28469707D+00  0.29225334D-11 -0.34297056D-12 -0.74364405D-01
  0.53687900D-01  0.40450962D-12 -0.87752681D-13 -0.15740820D-02  0.11364195D-02
  0.77198617D-14 -0.80959418D-12  0.89762272D-13  0.71983191D-12 -0.75538914D-12
  0.22077786D-01 -0.15939211D-01
MO    9     MO 0.0        OCC NO =    1.0000000  ORB. ENERGY =   -0.541368
 -0.50911957D-12 -0.93634951D-12 -0.15326036D-11 -0.20653777D-11 -0.20430984D-11
 -0.22740269D-12 -0.93660581D-12 -0.25035900D-11  0.35758723D-14  0.81027030D+00
  0.83194150D+00  0.62873451D+00  0.11223249D+01  0.11523422D+01  0.87087533D+00
  0.19825034D-10  0.20355267D-10  0.15383364D-10  0.12642989D-11  0.28469712D+00
  0.39434085D+00  0.73561874D-11  0.86328689D-12  0.53687909D-01  0.74364418D-01
  0.10181929D-11  0.22129210D-12  0.11364195D-02  0.15740821D-02  0.19349988D-13
  0.12841023D-11  0.52774381D-12 -0.18118462D-11 -0.89935928D-12  0.15939184D-01
  0.22077748D-01 -0.50910239D-12 -0.93631791D-12 -0.15325519D-11 -0.20653080D-11
 -0.20430295D-11 -0.22739501D-12 -0.93657472D-12 -0.25035069D-11  0.35757536D-14
 -0.81027015D+00 -0.83194135D+00 -0.62873439D+00 -0.11223247D+01 -0.11523420D+01
 -0.87087517D+00 -0.19824895D-10 -0.20355125D-10 -0.15383256D-10  0.12643019D-11
 -0.28469707D+00 -0.39434077D+00 -0.73561404D-11  0.86320661D-12 -0.53687900D-01
 -0.74364405D-01 -0.10182169D-11  0.22131590D-12 -0.11364195D-02 -0.15740820D-02
 -0.19344076D-13  0.12836611D-11  0.52818681D-12 -0.18118479D-11 -0.90044947D-12
  0.15939211D-01  0.22077786D-01
MO   10     MO 0.0        OCC NO =    0.0000000  ORB. ENERGY =    0.175552
 -0.24718563D-01 -0.45461254D-01 -0.74410335D-01 -0.10027736D+00 -0.99195671D-01
 -0.11040761D-01 -0.48600830D-01 -0.12991223D+00  0.18555337D-03 -0.64479253D-12
 -0.66203793D-12 -0.50033096D-12 -0.25655159D-11 -0.26341322D-11 -0.19907287D-11
 -0.55732775D-01 -0.57223384D-01 -0.43246209D-01  0.90054315D-01 -0.15370835D-12
 -0.60513151D-12 -0.60693426D-01 -0.65193960D-02 -0.11637313D-12 -0.46174831D-12
  0.62267882D-01  0.84859780D+00  0.62025106D-13  0.24590627D-12 -0.21228915D+00
  0.19007784D-01  0.19007784D-01 -0.38015567D-01 -0.36512447D-11 -0.12019121D-12
 -0.48140766D-12  0.24718641D-01  0.45461397D-01  0.74410569D-01  0.10027768D+00
  0.99195983D-01  0.11040796D-01  0.48600972D-01  0.12991261D+00 -0.18555391D-03
 -0.64993360D-12 -0.66731649D-12 -0.50432020D-12 -0.25628121D-11 -0.26313561D-11
 -0.19886307D-11 -0.55731946D-01 -0.57222533D-01 -0.43245566D-01 -0.90054477D-01
 -0.15235843D-12 -0.60592199D-12 -0.60693281D-01  0.65189127D-02 -0.11653968D-12
 -0.46162475D-12  0.62268065D-01 -0.84859746D+00  0.62048281D-13  0.24587018D-12
 -0.21228926D+00 -0.19007798D-01 -0.19007798D-01  0.38015596D-01 -0.36508503D-11
  0.12264619D-12  0.47918405D-12
MO   11     MO 0.0        OCC NO =    0.0000000  ORB. ENERGY =    0.179578
  0.24693331D-01  0.45414848D-01  0.74334379D-01  0.10017500D+00  0.99094415D-01
  0.11029491D-01  0.45008370D-01  0.12030942D+00 -0.17183770D-03 -0.86042095D-13
 -0.88343346D-13 -0.66764923D-13 -0.34123995D-12 -0.35036663D-12 -0.26478736D-12
 -0.25837167D+00 -0.26528199D+00 -0.20048518D+00 -0.49802702D-01 -0.60316608D-13
 -0.23926299D-12 -0.44165844D-01 -0.15629369D+00  0.45735725D-13  0.18124732D-12
 -0.57724827D-01  0.10498888D+00 -0.18453042D-12 -0.73136638D-12  0.34014314D-01
 -0.36081753D-02 -0.36081753D-02  0.72163506D-02  0.31048273D-11  0.19778450D-12
  0.78582126D-12  0.24693252D-01  0.45414704D-01  0.74334143D-01  0.10017469D+00
  0.99094100D-01  0.11029456D-01  0.45008216D-01  0.12030901D+00 -0.17183711D-03
  0.86828617D-13  0.89150904D-13  0.67375230D-13  0.34120748D-12  0.35033329D-12
  0.26476216D-12  0.25837188D+00  0.26528220D+00  0.20048534D+00 -0.49802419D-01
  0.60151382D-13  0.23893594D-12  0.44166049D-01 -0.15629371D+00 -0.45685194D-13
 -0.18108712D-12  0.57724634D-01  0.10499164D+00  0.18452366D-12  0.73132905D-12
 -0.34013628D-01 -0.36081134D-02 -0.36081134D-02  0.72162267D-02 -0.31066697D-11
  0.19775368D-12  0.78630750D-12
MO   12     MO 0.0        OCC NO =    0.0000000  ORB. ENERGY =    0.212136
  0.24939723D-12  0.45868001D-12  0.75076093D-12  0.10117456D-11  0.10008319D-11
  0.11139544D-12  0.49777963D-12  0.13305876D-11 -0.19004755D-14 -0.88665607D-01
 -0.91037026D-01 -0.68800654D-01 -0.35100636D+00 -0.36039426D+00 -0.27236567D+00
  0.42251903D-11  0.43381958D-11  0.32785639D-11 -0.92341964D-12 -0.14887642D-01
 -0.58936685D-01  0.17932781D-11 -0.19377108D-12 -0.19882734D-01 -0.78711088D-01
  0.25127499D-12 -0.88308453D-11  0.10898106D-01  0.43143049D-01  0.19178057D-11
 -0.22069469D-12 -0.90569484D-13  0.31126417D-12  0.70054595D-13  0.99248155D-02
  0.39290019D-01 -0.24938848D-12 -0.45866393D-12 -0.75073461D-12 -0.10117101D-11
 -0.10007968D-11 -0.11139154D-12 -0.49776423D-12 -0.13305464D-11  0.19004167D-14
 -0.88665620D-01 -0.91037039D-01 -0.68800665D-01 -0.35100642D+00 -0.36039431D+00
 -0.27236571D+00  0.42253920D-11  0.43384029D-11  0.32787204D-11  0.92341370D-12
 -0.14887644D-01 -0.58936695D-01  0.17933052D-11  0.19372622D-12 -0.19882737D-01
 -0.78711097D-01  0.25132370D-12  0.88308954D-11  0.10898111D-01  0.43143066D-01
  0.19177524D-11  0.22059077D-12  0.90652955D-13 -0.31124373D-12 -0.70132091D-13
 -0.99248169D-02 -0.39290025D-01
MO   13     MO 0.0        OCC NO =    0.0000000  ORB. ENERGY =    0.212136
 -0.70566204D-16 -0.12978215D-15 -0.21242557D-15 -0.28627040D-15 -0.28318240D-15
 -0.31519009D-16 -0.14093968D-15 -0.37673817D-15  0.53809435D-18 -0.35100636D+00
 -0.36039426D+00 -0.27236567D+00  0.88665607D-01  0.91037026D-01  0.68800654D-01
 -0.12035019D-14 -0.12356904D-14 -0.93386514D-15  0.26394209D-15 -0.58936685D-01
  0.14887642D-01 -0.51961734D-15  0.57418850D-16 -0.78711088D-01  0.19882734D-01
 -0.81038221D-16  0.23848582D-14  0.43143049D-01 -0.10898106D-01 -0.53422634D-15
  0.35042530D-13 -0.34947741D-13 -0.94789109D-16  0.13045992D-12  0.39290019D-01
 -0.99248155D-02  0.72707190D-16  0.13371975D-15  0.21887059D-15  0.29495587D-15
  0.29177418D-15  0.32475299D-16  0.14537244D-15  0.38858716D-15 -0.55501823D-18
 -0.35100642D+00 -0.36039431D+00 -0.27236571D+00  0.88665620D-01  0.91037039D-01
  0.68800665D-01 -0.12724700D-14 -0.13065030D-14 -0.98738136D-15 -0.25993920D-15
 -0.58936695D-01  0.14887644D-01 -0.52046847D-15 -0.10178405D-15 -0.78711097D-01
  0.19882737D-01 -0.10257169D-15 -0.23812273D-14  0.43143066D-01 -0.10898111D-01
 -0.49833650D-15 -0.35179329D-13  0.35096764D-13  0.82565457D-16 -0.13054707D-12
 -0.39290025D-01  0.99248169D-02
MO   14     MO 0.0        OCC NO =    0.0000000  ORB. ENERGY =    0.282746
 -0.99858652D-13 -0.18365548D-12 -0.30060468D-12 -0.40510294D-12 -0.40073309D-12
 -0.44602736D-13 -0.17430859D-12 -0.46593481D-12  0.66549371D-15 -0.32215119D+00
 -0.33076733D+00 -0.24997531D+00  0.14618515D+00  0.15009496D+00  0.11343332D+00
 -0.27825752D-12 -0.28569969D-12 -0.21591573D-12  0.10887938D-12 -0.53101258D-01
  0.24096187D-01  0.71408190D-13  0.90959104D-12 -0.93538962D-01  0.42445931D-01
 -0.11723152D-12 -0.22845692D-12  0.11533021D+00 -0.52334323D-01  0.43623522D-12
 -0.74738960D-13 -0.17884538D-12  0.25358434D-12  0.13108690D-12  0.28223628D-01
 -0.12807264D-01 -0.99858593D-13 -0.18365537D-12 -0.30060451D-12 -0.40510270D-12
 -0.40073285D-12 -0.44602710D-13 -0.17430956D-12 -0.46593740D-12  0.66549742D-15
  0.32215115D+00  0.33076729D+00  0.24997528D+00 -0.14618513D+00 -0.15009494D+00
 -0.11343330D+00  0.27835603D-12  0.28580084D-12  0.21599217D-12  0.10887512D-12
  0.53101252D-01 -0.24096184D-01 -0.71376119D-13  0.90963165D-12  0.93538949D-01
 -0.42445924D-01  0.11724091D-12 -0.22881852D-12 -0.11533021D+00  0.52334321D-01
 -0.43630800D-12 -0.74768566D-13 -0.17883553D-12  0.25360409D-12  0.12989506D-12
  0.28223621D-01 -0.12807261D-01
MO   15     MO 0.0        OCC NO =    0.0000000  ORB. ENERGY =    0.282746
  0.55229411D-12  0.10157542D-11  0.16625720D-11  0.22405266D-11  0.22163580D-11
  0.24668697D-12  0.96405430D-12  0.25769611D-11 -0.36806681D-14 -0.14618515D+00
 -0.15009496D+00 -0.11343332D+00 -0.32215119D+00 -0.33076733D+00 -0.24997531D+00
  0.15384587D-11  0.15796058D-11  0.11937771D-11 -0.60225131D-12 -0.24096187D-01
 -0.53101258D-01 -0.39490524D-12 -0.50305500D-11 -0.42445931D-01 -0.93538962D-01
  0.64819360D-12  0.12641608D-11  0.52334323D-01  0.11533021D+00 -0.24124764D-11
  0.63622774D-12  0.76608438D-12 -0.14023121D-11  0.10382206D-12  0.12807264D-01
  0.28223628D-01  0.55229029D-12  0.10157471D-11  0.16625605D-11  0.22405111D-11
  0.22163427D-11  0.24668527D-12  0.96404494D-12  0.25769360D-11 -0.36806323D-14
  0.14618513D+00  0.15009494D+00  0.11343330D+00  0.32215115D+00  0.33076729D+00
  0.24997528D+00 -0.15381509D-11 -0.15792898D-11 -0.11935382D-11 -0.60223534D-12
  0.24096184D-01  0.53101252D-01  0.39503078D-12 -0.50305990D-11  0.42445924D-01
  0.93538949D-01 -0.64818955D-12  0.12650447D-11 -0.52334321D-01 -0.11533021D+00
  0.24126503D-11  0.63623452D-12  0.76611954D-12 -0.14023541D-11  0.10457139D-12
  0.12807261D-01  0.28223621D-01
MO   16     MO 0.0        OCC NO =    0.0000000  ORB. ENERGY =    0.285694
 -0.13116838D-01 -0.24123890D-01 -0.39485640D-01 -0.53211908D-01 -0.52637911D-01
 -0.58587497D-02 -0.22717407D-01 -0.60724663D-01  0.86732910D-04 -0.26550884D-11
 -0.27261004D-11 -0.20602331D-11 -0.10521125D-10 -0.10802520D-10 -0.81639357D-11
 -0.11728263D+00 -0.12041943D+00 -0.91006218D-01  0.11304489D-01 -0.46139619D-12
 -0.18307975D-11  0.37330223D-02  0.12852674D+00 -0.76863849D-12 -0.30467599D-11
 -0.39855813D-01 -0.19491366D-01  0.96156579D-12  0.38118533D-11  0.86560335D-01
 -0.24926375D-01 -0.24926375D-01  0.49852750D-01 -0.31541109D-12  0.12947749D-12
  0.51323504D-12 -0.13116840D-01 -0.24123895D-01 -0.39485648D-01 -0.53211919D-01
 -0.52637921D-01 -0.58587509D-02 -0.22717412D-01 -0.60724677D-01  0.86732929D-04
  0.26542570D-11  0.27252468D-11  0.20595880D-11  0.10518227D-10  0.10799543D-10
  0.81616863D-11  0.11728263D+00  0.12041943D+00  0.91006218D-01  0.11304500D-01
  0.46164902D-12  0.18313572D-11 -0.37330170D-02  0.12852674D+00  0.76860852D-12
  0.30468002D-11  0.39855797D-01 -0.19491435D-01 -0.96154878D-12 -0.38118790D-11
 -0.86560344D-01 -0.24926375D-01 -0.24926375D-01  0.49852750D-01  0.31329066D-12
  0.12939546D-12  0.51416672D-12
MO   17     MO 0.0        OCC NO =    0.0000000  ORB. ENERGY =    0.425804
  0.21499677D-01  0.39541226D-01  0.64720518D-01  0.87219106D-01  0.86278272D-01
  0.96030180D-02  0.37551953D-01  0.10037808D+00 -0.14336980D-03 -0.54431428D-13
 -0.55887232D-13 -0.42236421D-13 -0.22054368D-12 -0.22644227D-12 -0.17113231D-12
 -0.10524989D+00 -0.10806487D+00 -0.81669339D-01 -0.11173824D-01  0.74265197D-13
  0.29690670D-12  0.23970744D-01 -0.27591292D+00 -0.70936309D-13 -0.28166888D-12
 -0.39853670D-01  0.25264519D+01  0.23036511D-13  0.91395553D-13 -0.46936758D+00
  0.14080396D-01  0.14080396D-01 -0.28160793D-01  0.27609378D-11  0.24687459D-12
  0.97657198D-12 -0.21499676D-01 -0.39541225D-01 -0.64720515D-01 -0.87219103D-01
 -0.86278269D-01 -0.96030176D-02 -0.37551952D-01 -0.10037808D+00  0.14336980D-03
 -0.56650853D-13 -0.58166016D-13 -0.43958598D-13 -0.21897375D-12 -0.22483034D-12
 -0.16991411D-12 -0.10524990D+00 -0.10806487D+00 -0.81669341D-01  0.11173829D-01
  0.75169669D-13  0.29648466D-12  0.23970739D-01  0.27591290D+00 -0.71141383D-13
 -0.28153354D-12 -0.39853667D-01 -0.25264519D+01  0.23062977D-13  0.91327782D-13
 -0.46936758D+00 -0.14080396D-01 -0.14080396D-01  0.28160791D-01  0.27621987D-11
 -0.24624395D-12 -0.97707995D-12
MO   18     MO 0.0        OCC NO =    0.0000000  ORB. ENERGY =    0.548137
  0.52053905D-01  0.95735169D-01  0.15669797D+00  0.21117038D+00  0.20889248D+00
  0.23250330D-01  0.10181787D+00  0.27216380D+00 -0.38873099D-03  0.56423811D-12
  0.57932902D-12  0.43782423D-12  0.22368100D-11  0.22966350D-11  0.17356673D-11
  0.12504120D+01  0.12838550D+01  0.97026530D+00 -0.14770486D+00 -0.33158587D-14
 -0.12148121D-13  0.42104742D+00 -0.43695687D+00  0.25390043D-12  0.10059937D-11
  0.41262065D+00  0.20389251D+00 -0.42052191D-13 -0.16661560D-12 -0.62640521D-01
 -0.40293297D-01 -0.40293297D-01  0.80586594D-01  0.10511345D-10 -0.43224696D-13
 -0.17045247D-12 -0.52053906D-01 -0.95735172D-01 -0.15669797D+00 -0.21117039D+00
 -0.20889249D+00 -0.23250330D-01 -0.10181787D+00 -0.27216381D+00  0.38873100D-03
  0.56383420D-12  0.57891431D-12  0.43751082D-12  0.22368020D-11  0.22966267D-11
  0.17356611D-11  0.12504120D+01  0.12838550D+01  0.97026530D+00  0.14770487D+00
 -0.31230328D-14 -0.12173938D-13  0.42104740D+00  0.43695687D+00  0.25380295D-12
  0.10059880D-11  0.41262065D+00 -0.20389251D+00 -0.42017348D-13 -0.16659066D-12
 -0.62640521D-01  0.40293310D-01  0.40293310D-01 -0.80586621D-01  0.10512123D-10
  0.42764267D-13  0.17014175D-12
MO   19     MO 0.0        OCC NO =    0.0000000  ORB. ENERGY =    1.133301
 -0.10892134D-01 -0.20032316D-01 -0.32788611D-01 -0.44186812D-01 -0.43710168D-01
 -0.48650665D-02 -0.16663328D-01 -0.44541835D-01  0.63619010D-04 -0.42040019D-11
 -0.43164406D-11 -0.32621226D-11 -0.16693521D-10 -0.17140000D-10 -0.12953446D-10
  0.60624270D+00  0.62245705D+00  0.47041797D+00 -0.34061784D-01 -0.33933916D-11
 -0.13486455D-10  0.71024533D+00 -0.63516893D-01  0.20298024D-11  0.80577103D-11
 -0.32423052D+00  0.25358474D-01 -0.35844808D-12 -0.14222263D-11  0.53106973D-01
  0.83269990D-01  0.83269990D-01 -0.16653998D+00 -0.64111709D-11  0.14856201D-12
  0.59130598D-12 -0.10892135D-01 -0.20032318D-01 -0.32788614D-01 -0.44186816D-01
 -0.43710173D-01 -0.48650670D-02 -0.16663331D-01 -0.44541842D-01  0.63619020D-04
  0.41933342D-11  0.43054876D-11  0.32538449D-11  0.16570034D-10  0.17013210D-10
  0.12857625D-10 -0.60624330D+00 -0.62245767D+00 -0.47041843D+00 -0.34061778D-01
  0.33828197D-11  0.13383810D-10 -0.71024569D+00 -0.63516694D-01 -0.20261603D-11
 -0.80223671D-11  0.32423080D+00  0.25358555D-01  0.35805753D-12  0.14184194D-11
 -0.53106972D-01  0.83269975D-01  0.83269975D-01 -0.16653995D+00  0.64096011D-11
  0.14376864D-12  0.56730937D-12
MO   20     MO 0.0        OCC NO =    0.0000000  ORB. ENERGY =    1.135638
 -0.15578130D-15 -0.28650587D-15 -0.46894874D-15 -0.63196790D-15 -0.62515086D-15
 -0.69581074D-16 -0.26602461D-15 -0.71109590D-15  0.10156568D-17 -0.89976773D+00
 -0.92383260D+00 -0.69818063D+00  0.22685607D+00  0.23292348D+00  0.17603044D+00
  0.10269320D-13  0.10543979D-13  0.79685456D-14 -0.10175324D-15 -0.74343199D+00
  0.18743955D+00  0.99887805D-14  0.14334583D-14  0.25504503D+00 -0.64303833D-01
 -0.59997276D-14  0.63517897D-15 -0.27461330D-01  0.69237529D-02  0.60223907D-15
  0.99891016D-13 -0.98476131D-13 -0.14148846D-14  0.36513144D-12  0.12215573D+00
 -0.30798802D-01 -0.59962829D-16 -0.11028090D-15 -0.18050621D-15 -0.24325502D-15
 -0.24063102D-15 -0.26782920D-16 -0.59591173D-16 -0.15928992D-15  0.22751346D-18
 -0.89976821D+00 -0.92383309D+00 -0.69818100D+00  0.22685619D+00  0.23292361D+00
  0.17603054D+00 -0.16449708D-14 -0.16889666D-14 -0.12764258D-14 -0.56757047D-15
 -0.74343236D+00  0.18743964D+00 -0.39407429D-14 -0.26841763D-14  0.25504525D+00
 -0.64303888D-01  0.33975055D-15 -0.14468546D-15 -0.27461368D-01  0.69237624D-02
 -0.41983348D-15 -0.97910475D-13  0.99757886D-13 -0.18474109D-14 -0.36496732D-12
 -0.12215575D+00  0.30798808D-01
MO   21     MO 0.0        OCC NO =    0.0000000  ORB. ENERGY =    1.135638
 -0.25559306D-12 -0.47007511D-12 -0.76941226D-12 -0.10368806D-11 -0.10256958D-11
 -0.11416287D-12 -0.54969747D-12 -0.14693664D-11  0.20986929D-14 -0.22685607D+00
 -0.23292348D+00 -0.17603044D+00 -0.89976773D+00 -0.92383260D+00 -0.69818063D+00
  0.27521259D-10  0.28257333D-10  0.21355300D-10  0.13681789D-11 -0.18743955D+00
 -0.74343199D+00  0.18323323D-10  0.10975843D-10  0.64303833D-01  0.25504503D+00
 -0.15527645D-10  0.47480121D-11 -0.69237529D-02 -0.27461330D-01 -0.46523847D-13
 -0.84291146D-12 -0.47640078D-12  0.13193122D-11  0.19856662D-12  0.30798802D-01
  0.12215573D+00  0.25698774D-12  0.47264013D-12  0.77361065D-12  0.10425385D-11
  0.10312926D-11  0.11478581D-12  0.55179880D-12  0.14749833D-11 -0.21067156D-14
 -0.22685619D+00 -0.23292361D+00 -0.17603054D+00 -0.89976821D+00 -0.92383309D+00
 -0.69818100D+00  0.27601524D-10  0.28339744D-10  0.21417582D-10 -0.13633347D-11
 -0.18743964D+00 -0.74343236D+00  0.18418183D-10 -0.10967170D-10  0.64303888D-01
  0.25504525D+00 -0.15571176D-10 -0.47516406D-11 -0.69237625D-02 -0.27461368D-01
 -0.39247649D-13  0.83313629D-12  0.46394878D-12 -0.12970851D-11 -0.19764692D-12
 -0.30798808D-01 -0.12215575D+00
MO   22     MO 0.0        OCC NO =    0.0000000  ORB. ENERGY =    1.211302
  0.96502778D-13  0.17748351D-12  0.29050249D-12  0.39148895D-12  0.38726595D-12
  0.43103806D-13  0.30221229D-12  0.80782722D-12 -0.11538179D-14 -0.72318736D+00
 -0.74252948D+00 -0.56116194D+00  0.52738172D+00  0.54148688D+00  0.40922528D+00
  0.40788308D-11  0.41879217D-11  0.31649953D-11 -0.18674378D-11 -0.58772216D+00
  0.42859422D+00  0.55287177D-11  0.37392506D-12  0.33259236D+00 -0.24254175D+00
 -0.24154018D-11  0.36654570D-13 -0.56868929D-01  0.41471457D-01  0.42455368D-12
  0.76989113D-12  0.94547718D-12 -0.17153683D-11 -0.14666015D-12  0.45651442D-01
 -0.33291146D-01  0.96552989D-13  0.17757586D-12  0.29065364D-12  0.39169264D-12
  0.38746745D-12  0.43126233D-13  0.30229216D-12  0.80804072D-12 -0.11541229D-14
  0.72318698D+00  0.74252908D+00  0.56116164D+00 -0.52738144D+00 -0.54148660D+00
 -0.40922506D+00 -0.40607190D-11 -0.41693255D-11 -0.31509413D-11 -0.18673200D-11
  0.58772182D+00 -0.42859397D+00 -0.55171455D-11  0.36662430D-12 -0.33259225D+00
  0.24254167D+00  0.24062222D-11  0.36111549D-13  0.56868917D-01 -0.41471448D-01
 -0.42418896D-12  0.76888984D-12  0.94779786D-12 -0.17166877D-11 -0.14732686D-12
  0.45651393D-01 -0.33291110D-01
MO   23     MO 0.0        OCC NO =    0.0000000  ORB. ENERGY =    1.211302
 -0.23963083D-12 -0.44071811D-12 -0.72136114D-12 -0.97212563D-12 -0.96163930D-12
 -0.10703320D-12 -0.75029048D-12 -0.20055606D-11  0.28645380D-14 -0.52738172D+00
 -0.54148688D+00 -0.40922528D+00 -0.72318736D+00 -0.74252948D+00 -0.56116194D+00
 -0.10109433D-10 -0.10379817D-10 -0.78444806D-11  0.46354532D-11 -0.42859422D+00
 -0.58772217D+00 -0.13713916D-10 -0.92231595D-12  0.24254175D+00  0.33259236D+00
  0.59880241D-11 -0.90945100D-13 -0.41471457D-01 -0.56868929D-01 -0.10534264D-11
 -0.20579779D-11 -0.22012144D-11  0.42591923D-11 -0.17473431D-12  0.33291146D-01