[Molden Format]
[Title]
 Molden file created by orca_2mkl for BaseName=cuh

[Atoms] AU
Cu   1  29          0.0000000000         0.0000000000         0.0000000000 
H    2   1          0.5000000026         0.7000000034        -0.8000000039 
[GTO]
  1 0
s  21 1.0 
 16665490.0000000000         0.3573322716
  2495213.0000000000         0.6687799310
   567850.7000000000         1.1592579345
   160853.1000000000         1.9011910841
    52481.8600000000         2.9893473849
    18948.8500000000         4.5308305745
     7391.6550000000         6.6248563345
     3066.5170000000         9.2499077527
     1337.9940000000        12.0561012716
      608.7830000000        13.9335501288
      286.8980000000        13.0118312323
      139.1530000000         8.1333855405
       68.4945500000         2.5615937887
       31.6010800000         0.6689286411
       15.9915800000         0.6725506456
        8.0565100000         0.2731706109
        3.6903290000         0.0193580243
        1.7629020000        -0.0004056751
        0.8012690000        -0.0000133206
        0.1842430000        -0.0000048124
        0.0817930000         0.0000016676
s  21 1.0 
 16665490.0000000000        -0.2012523230
  2495213.0000000000        -0.3767892834
   567850.7000000000        -0.6529100520
   160853.1000000000        -1.0716518201
    52481.8600000000        -1.6852090987
    18948.8500000000        -2.5616578872
     7391.6550000000        -3.7609593506
     3066.5170000000        -5.3199519495
     1337.9940000000        -7.1056051520
      608.7830000000        -8.6959451407
      286.8980000000        -9.0947014709
      139.1530000000        -7.2494037803
       68.4945500000        -2.8904955396
       31.6010800000         1.8049158501
       15.9915800000         3.1386775927
        8.0565100000         1.2414319045
        3.6903290000         0.0923944429
        1.7629020000        -0.0041434608
        0.8012690000        -0.0001905120
        0.1842430000        -0.0000487116
        0.0817930000         0.0000169355
s  21 1.0 
 16665490.0000000000         0.0444482710
  2495213.0000000000         0.0832601267
   567850.7000000000         0.1441382193
   160853.1000000000         0.2369551128
    52481.8600000000         0.3722257927
    18948.8500000000         0.5679616681
     7391.6550000000         0.8352365846
     3066.5170000000         1.1962735212
     1337.9940000000         1.6248363346
      608.7830000000         2.0810096812
      286.8980000000         2.3395588930
      139.1530000000         2.1447522010
       68.4945500000         0.9604439653
       31.6010800000        -0.9275941943
       15.9915800000        -2.1988413625
        8.0565100000        -1.2071052953
        3.6903290000         0.5664806389
        1.7629020000         0.7485195677
        0.8012690000         0.1902716340
        0.1842430000         0.0027962442
        0.0817930000        -0.0003938537
s  21 1.0 
 16665490.0000000000        -0.0121485157
  2495213.0000000000        -0.0227739101
   567850.7000000000        -0.0394320434
   160853.1000000000        -0.0648068879
    52481.8600000000        -0.1018421107
    18948.8500000000        -0.1553295910
     7391.6550000000        -0.2285672194
     3066.5170000000        -0.3272091352
     1337.9940000000        -0.4449426022
      608.7830000000        -0.5697814542
      286.8980000000        -0.6424674646
      139.1530000000        -0.5901282953
       68.4945500000        -0.2671282162
       31.6010800000         0.2617976625
       15.9915800000         0.6434884094
        8.0565100000         0.3675027863
        3.6903290000        -0.2032929383
        1.7629020000        -0.3037037439
        0.8012690000        -0.1624561655
        0.1842430000         0.0713900888
        0.0817930000         0.0856309047
s  21 1.0 
 16665490.0000000000        -0.0151406413
  2495213.0000000000        -0.0288587369
   567850.7000000000        -0.0486984035
   160853.1000000000        -0.0827914914
    52481.8600000000        -0.1246568137
    18948.8500000000        -0.2002787189
     7391.6550000000        -0.2767922629
     3066.5170000000        -0.4268443179
     1337.9940000000        -0.5309212772
      608.7830000000        -0.7578005900
      286.8980000000        -0.7428252969
      139.1530000000        -0.8330351519
       68.4945500000        -0.2248490369
       31.6010800000         0.1775487730
       15.9915800000         1.0440735515
        8.0565100000         0.2962099293
        3.6903290000        -0.1381132253
        1.7629020000        -0.7592032413
        0.8012690000         0.1309324054
        0.1842430000         0.2615140412
        0.0817930000        -0.0306553124
s  21 1.0 
 16665490.0000000000        -0.0224011705
  2495213.0000000000        -0.0426303227
   567850.7000000000        -0.0721630217
   160853.1000000000        -0.1221806104
    52481.8600000000        -0.1849308830
    18948.8500000000        -0.2952580628
     7391.6550000000        -0.4112357090
     3066.5170000000        -0.6286087571
     1337.9940000000        -0.7909437638
      608.7830000000        -1.1152043149
      286.8980000000        -1.1153695767
      139.1530000000        -1.2245660628
       68.4945500000        -0.3615617103
       31.6010800000         0.2933766862
       15.9915800000         1.6097143426
        8.0565100000         0.7084446331
        3.6903290000        -0.9005690993
        1.7629020000        -1.1818542067
        0.8012690000         0.9886501128
        0.1842430000        -0.0488113059
        0.0817930000        -0.1050764673
s  21 1.0 
 16665490.0000000000        -0.0154135103
  2495213.0000000000        -0.0270839867
   567850.7000000000        -0.0513784733
   160853.1000000000        -0.0747384137
    52481.8600000000        -0.1366190622
    18948.8500000000        -0.1727323457
     7391.6550000000        -0.3172227382
     3066.5170000000        -0.3472275559
     1337.9940000000        -0.6471437739
      608.7830000000        -0.5591130428
      286.8980000000        -1.0306961727
      139.1530000000        -0.4330883256
       68.4945500000        -0.7421176345
       31.6010800000         0.8372559028
       15.9915800000         0.3928212491
        8.0565100000         1.6411763847
        3.6903290000        -2.7669229677
        1.7629020000         1.1485371539
        0.8012690000         0.1118920492
        0.1842430000        -0.2855787340
        0.0817930000         0.2111396966
s   1 1.0 
        0.0353030000         0.0580455328
p  17 1.0 
    48218.4100000000        11.2033857181
    11420.5500000000        16.3237902274
     3713.5690000000        23.5121387019
     1423.7620000000        32.2752261328
      606.6041000000        41.8042367298
      278.2564000000        50.1045157418
      134.8449000000        54.0561982294
       68.1225400000        49.5887535915
       35.4008800000        35.9687575253
       18.7902900000        18.4217271912
       10.0835600000         5.2983503661
        5.3461200000         0.6117376589
        2.7752280000         0.0087717651
        1.4075640000        -0.0037173204
        0.6872130000        -0.0008704714
        0.2468220000        -0.0000133910
        0.0962200000         0.0000000076
p  17 1.0 
    48218.4100000000        -4.0741006892
    11420.5500000000        -5.8902330576
     3713.5690000000        -8.5126005063
     1423.7620000000       -11.7311889623
      606.6041000000       -15.2598086917
      278.2564000000       -18.5666959372
      134.8449000000       -20.5077499544
       68.1225400000       -19.5672038928
       35.4008800000       -14.8399923232
       18.7902900000        -8.0053764842
       10.0835600000        -1.0329253447
        5.3461200000         2.4156792666
        2.7752280000         2.0869360235
        1.4075640000         0.8046848265
        0.6872130000         0.1423957252
        0.2468220000         0.0039566925
        0.0962200000        -0.0001284118
p  17 1.0 
    48218.4100000000         1.2864118978
    11420.5500000000         1.4878897630
     3713.5690000000         2.0876769915
     1423.7620000000         2.8657089245
      606.6041000000         3.7777080893
      278.2564000000         4.5422744191
      134.8449000000         5.0985803280
       68.1225400000         4.8029183080
       35.4008800000         3.7362807313
       18.7902900000         1.9624250673
       10.0835600000         0.2579954172
        5.3461200000        -0.7483652165
        2.7752280000        -0.5952679548
        1.4075640000        -0.2938511757
        0.6872130000         0.0042108275
        0.2468220000         0.0972663732
        0.0962200000         0.0522838051
p  17 1.0 
    48218.4100000000         2.0501147374
    11420.5500000000         2.2018320642
     3713.5690000000         3.2854777365
     1423.7620000000         4.3787912239
      606.6041000000         5.9297212632
      278.2564000000         6.9470440380
      134.8449000000         8.0067911206
       68.1225400000         7.3179034096
       35.4008800000         5.9346978541
       18.7902900000         2.9649768629
       10.0835600000         0.5561606116
        5.3461200000        -1.3736087716
        2.7752280000        -0.9681204271
        1.4075640000        -0.4441073775
        0.6872130000         0.1559565392
        0.2468220000         0.1589452992
        0.0962200000         0.0270247276
p  17 1.0 
    48218.4100000000         3.0548882734
    11420.5500000000         4.2063630417
     3713.5690000000         6.7341835021
     1423.7620000000         8.4256111606
      606.6041000000        12.0472174689
      278.2564000000        13.3700028564
      134.8449000000        16.3362377316
       68.1225400000        13.9903647848
       35.4008800000        12.3418096286
       18.7902900000         5.7046776672
       10.0835600000         1.9779860125
        5.3461200000        -4.4539474013
        2.7752280000        -2.3040855550
        1.4075640000        -0.2070859804
        0.6872130000         1.0460775373
        0.2468220000        -0.0134214643
        0.0962200000        -0.0556181547
p  17 1.0 
    48218.4100000000         4.0929574237
    11420.5500000000         6.2556382624
     3713.5690000000         7.8877675208
     1423.7620000000        12.2488898875
      606.6041000000        14.2612734233
      278.2564000000        19.4972966497
      134.8449000000        19.2194624396
       68.1225400000        21.0543486997
       35.4008800000        13.3348594917
       18.7902900000        11.6183046016
       10.0835600000         1.5543848893
        5.3461200000       -10.4188882966
        2.7752280000        -2.8643852566
        1.4075640000         4.1709281799
        0.6872130000        -0.4500106579
        0.2468220000        -0.2945846808
        0.0962200000         0.0801593477
p   1 1.0 
        0.0370370000         0.0231598019
d  10 1.0 
      527.8860000000        42.7616084262
      158.7330000000        48.5007335775
       61.5556000000        49.4472850505
       26.8834000000        41.0482327506
       12.5175000000        28.0502931076
        6.0697700000        14.7394396050
        2.9583190000         5.5880289684
        1.4141220000         1.5655936394
        0.6533290000         0.3220556880
        0.2866920000         0.0424215797
d  10 1.0 
      527.8860000000       -58.1532248559
      158.7330000000       -66.4671841450
       61.5556000000       -67.9873570179
       26.8834000000       -57.1315772314
       12.5175000000       -40.4989014211
        6.0697700000       -20.8888232339
        2.9583190000        -5.6720967083
        1.4141220000         0.1342669547
        0.6533290000         0.5359546608
        0.2866920000         0.1487931891
d  10 1.0 
      527.8860000000        79.4332357809
      158.7330000000        91.4362593116
       61.5556000000        93.7762229894
       26.8834000000        79.9854414140
       12.5175000000        59.8763314224
        6.0697700000        29.5192582267
        2.9583190000         1.2363999161
        1.4141220000        -3.7000606382
        0.6533290000        -0.6582433865
        0.2866920000         0.1777400773
d  10 1.0 
      527.8860000000      -101.1655785044
      158.7330000000      -106.3607219507
       61.5556000000      -118.7795532756
       26.8834000000       -96.2057554112
       12.5175000000       -87.8961106133
        6.0697700000       -28.4335631978
        2.9583190000        14.6413987906
        1.4141220000         2.9194202216
        0.6533290000        -1.3621407704
        0.2866920000        -0.0292050871
d   1 1.0 
        0.1150140000         0.0647565678
f   1 1.0 
        7.7344000000       568.8005319190
f   1 1.0 
        2.3909000000        40.5287543819
f   1 1.0 
        0.7391000000         2.8879008884
g   1 1.0 
        6.0075000000       911.7532941388
g   1 1.0 
        1.7760000000        31.9475524261
h   1 1.0 
        3.7909000000        56.3970949011

  2 0
s   3 1.0 
       82.6400000000         0.4483321190
       12.4100000000         0.8272091211
        2.8240000000         1.3425357337
s   1 1.0 
        0.7977000000         0.6015750091
s   1 1.0 
        0.2581000000         0.2580780661
s   1 1.0 
        0.0898900000         0.1170020921
p   1 1.0 
        2.2920000000         4.0198361784
p   1 1.0 
        0.8380000000         1.1428654696
p   1 1.0 
        0.2920000000         0.3059628180
d   1 1.0 
        2.0620000000        10.1152178423
d   1 1.0 
        0.6620000000         1.3850694971
f   1 1.0 
        1.3970000000        12.0973986675

[5D]
[7F]
[9G]
[MO]
 Sym=     1a
 Ene= -3.28940200189575E+02
 Spin= Alpha
 Occup= 2.000000
  1      -0.977093149460
  2       0.212659832279
  3       0.001058219176
  4       0.000743258194
  5       0.000013278772
  6       0.000281584200
  7      -0.000036041323
  8       0.000011683503
  9       0.000002521758
 10       0.000003530461
 11      -0.000004034810
 12       0.000101890530
 13       0.000142646741
 14      -0.000163024838
 15       0.000180440099
 16       0.000252616136
 17      -0.000288704158
 18      -0.000079279468
 19      -0.000110991255
 20       0.000126847156
 21       0.000059115995
 22       0.000082762392
 23      -0.000094585587
 24       0.000000636792
 25       0.000000891510
 26      -0.000001018867
 27       0.000002014733
 28       0.000002820626
 29      -0.000003223572
 30       0.000009189019
 31      -0.000023579043
 32      -0.000033010659
 33      -0.000007073713
 34       0.000020631664
 35       0.000000616175
 36      -0.000001581112
 37      -0.000002213556
 38      -0.000000474333
 39       0.000001383474
 40      -0.000005936676
 41       0.000015233520
 42       0.000021326927
 43       0.000004570056
 44      -0.000013329330
 45      -0.000000857913
 46       0.000002201408
 47       0.000003081971
 48       0.000000660422
 49      -0.000001926232
 50       0.000005998859
 51      -0.000015393079
 52      -0.000021550311
 53      -0.000004617924
 54       0.000013468945
 55      -0.000000604066
 56      -0.000000895270
 57      -0.000001253378
 58      -0.000000597329
 59       0.000001742211
 60      -0.000000774759
 61       0.000000231157
 62       0.000001833295
 63       0.000002717073
 64       0.000003803902
 65       0.000001812847
 66      -0.000005287471
 67       0.000002351333
 68      -0.000000701545
 69       0.000000642733
 70       0.000000952575
 71       0.000001333605
 72       0.000000635564
 73      -0.000001853728
 74       0.000000824352
 75      -0.000000245954
 76      -0.000000590689
 77      -0.000000078810
 78      -0.000000110335
 79      -0.000000304861
 80       0.000000889179
 81      -0.000000748193
 82       0.000000223231
 83       0.000000234387
 84       0.000000182133
 85       0.000000192791
 86       0.000000025723
 87       0.000000036012
 88       0.000000099502
 89      -0.000000290214
 90       0.000000244198
 91      -0.000000072859
 92      -0.000000076500
 93      -0.000000059445
 94       0.000000042590
 95      -0.000000025711
 96      -0.000000035996
 97       0.000000015177
 98      -0.000000044267
 99       0.000000079836
100      -0.000000023820
101      -0.000000043854
102      -0.000000034077
103       0.000000000762
104      -0.000000018869
105       0.000006873138
106      -0.000342190478
107      -0.000279435706
108      -0.000332662281
109       0.000009668511
110       0.000013535916
111      -0.000015469619
112       0.000086873712
113       0.000121623199
114      -0.000138997949
115       0.000035766610
116       0.000050073255
117      -0.000057226581
118      -0.000005376859
119       0.000013797023
120       0.000019315833
121       0.000004139107
122      -0.000012072395
123      -0.000010530330
124       0.000027020832
125       0.000037829166
126       0.000008106250
127      -0.000023643227
128       0.000002308012
129       0.000003420640
130       0.000004788896
131       0.000002282271
132      -0.000006656623
133       0.000002960193
134      -0.000000883205
 Sym=     1a
 Ene= -4.09762441000833E+01
 Spin= Alpha
 Occup= 2.000000
  1      -0.212739458150
  2      -0.977874028901
  3      -0.008218362458
  4      -0.007167417946
  5       0.005038612842
  6      -0.003735302339
  7       0.001610356685
  8       0.000082940598
  9      -0.003737724470
 10      -0.005232814365
 11       0.005980359736
 12      -0.000991428613
 13      -0.001388000066
 14       0.001586285814
 15      -0.005191999766
 16      -0.007268799744
 17       0.008307200007
 18       0.004902442279
 19       0.006863419255
 20      -0.007843907993
 21      -0.001756012564
 22      -0.002458417608
 23       0.002809620193
 24       0.000477681990
 25       0.000668754796
 26      -0.000764291243
 27       0.000010992286
 28       0.000015389201
 29      -0.000017587660
 30      -0.000221310981
 31       0.000567884236
 32       0.000795037934
 33       0.000170365271
 34      -0.000496898705
 35       0.000038540614
 36      -0.000098895289
 37      -0.000138453410
 38      -0.000029668581
 39       0.000086533377
 40       0.000128424204
 41      -0.000329536670
 42      -0.000461351340
 43      -0.000098861001
 44       0.000288344587
 45       0.000147707496
 46      -0.000379017606
 47      -0.000530624654
 48      -0.000113705277
 49       0.000331640398
 50       0.000003960615
 51      -0.000010162941
 52      -0.000014228117
 53      -0.000003048884
 54       0.000008892575
 55      -0.000016521378
 56      -0.000024485867
 57      -0.000034280214
 58      -0.000016337113
 59       0.000047649914
 60      -0.000021189869
 61       0.000006322223
 62      -0.000002697123
 63      -0.000003997305
 64      -0.000005596227
 65      -0.000002667028
 66       0.000007778816
 67      -0.000003459242
 68       0.000001032108
 69      -0.000091558942
 70      -0.000135696916
 71      -0.000189975684
 72      -0.000090537774
 73       0.000264068510
 74      -0.000117431007
 75       0.000035036789
 76       0.000004724072
 77       0.000000630290
 78       0.000000882406
 79       0.000002438149
 80      -0.000007111266
 81       0.000005983718
 82      -0.000001785306
 83      -0.000001874527
 84      -0.000001456618
 85       0.000014143599
 86       0.000001887053
 87       0.000002641875
 88       0.000007299677
 89      -0.000021290724
 90       0.000017914907
 91      -0.000005345103
 92      -0.000005612230
 93      -0.000004361030
 94      -0.000006823215
 95       0.000004119122
 96       0.000005766771
 97      -0.000002431509
 98       0.000007091901
 99      -0.000012790257
100       0.000003816109
101       0.000007025662
102       0.000005459349
103      -0.000000122030
104       0.000003022994
105      -0.000126253455
106       0.005023733123
107      -0.003722460492
108       0.000033751033
109       0.000004137166
110       0.000005792032
111      -0.000006619450
112      -0.000546886710
113      -0.000765641386
114       0.000875018709
115       0.000414283804
116       0.000579997328
117      -0.000662854106
118       0.000002639903
119      -0.000006773975
120      -0.000009483566
121      -0.000002032191
122       0.000005927223
123      -0.000030769356
124       0.000078954185
125       0.000110535862
126       0.000023686255
127      -0.000069084908
128       0.000009136168
129       0.000013540453
130       0.000018956634
131       0.000009034270
132      -0.000026349954
133       0.000011717800
134      -0.000003496130
 Sym=     1a
 Ene= -3.57836696199944E+01
 Spin= Alpha
 Occup= 2.000000
  1       0.001947760174
  2       0.008591064164
  3      -0.001204151239
  4      -0.011653628585
  5       0.009986650816
  6      -0.004838673430
  7       0.003320714114
  8       0.000193885747
  9      -0.425598809183
 10      -0.595838331940
 11       0.680958099628
 12      -0.003581773914
 13      -0.005014483465
 14       0.005730838326
 15      -0.006499613491
 16      -0.009099458888
 17       0.010399381770
 18       0.006398938820
 19       0.008958514354
 20      -0.010238302247
 21      -0.002146309432
 22      -0.003004833202
 23       0.003434095165
 24       0.000614253590
 25       0.000859955027
 26      -0.000982805770
 27      -0.000003526607
 28      -0.000004937250
 29       0.000005642572
 30      -0.000262620426
 31       0.000673884255
 32       0.000943437952
 33       0.000202165273
 34      -0.000589648709
 35       0.000131277032
 36      -0.000336856921
 37      -0.000471599677
 38      -0.000101057086
 39       0.000294749798
 40       0.000168087707
 41      -0.000431313221
 42      -0.000603838505
 43      -0.000129393965
 44       0.000377399062
 45       0.000292470597
 46      -0.000750479736
 47      -0.001050671617
 48      -0.000225143923
 49       0.000656669745
 50      -0.000001252280
 51       0.000003213330
 52       0.000004498659
 53       0.000000964000
 54      -0.000002811662
 55      -0.000048632235
 56      -0.000072076448
 57      -0.000100907031
 58      -0.000048089828
 59       0.000140261997
 60      -0.000062374371
 61       0.000018610058
 62       0.000031411459
 63       0.000046554048
 64       0.000065175667
 65       0.000031061128
 66      -0.000090594956
 67       0.000040287486
 68      -0.000012020201
 69      -0.000138202832
 70      -0.000204826512
 71      -0.000286757117
 72      -0.000136661438
 73       0.000398595861
 74      -0.000177255188
 75       0.000052885975
 76       0.000028453502
 77       0.000003796299
 78       0.000005314819
 79       0.000014685187
 80      -0.000042831797
 81       0.000036040466
 82      -0.000010753057
 83      -0.000011290449
 84      -0.000008773338
 85       0.000016115186
 86       0.000002150105
 87       0.000003010147
 88       0.000008317236
 89      -0.000024258603
 90       0.000020412205
 91      -0.000006090199
 92      -0.000006394563
 93      -0.000004968947
 94      -0.000006311269
 95       0.000003810065
 96       0.000005334091
 97      -0.000002249073
 98       0.000006559796
 99      -0.000011830606
100       0.000003529787
101       0.000006498528
102       0.000005049735
103      -0.000000112874
104       0.000002796180
105      -0.000227042721
106       0.004334173235
107      -0.006962535954
108      -0.000063896084
109       0.000226459009
110       0.000317042612
111      -0.000362334386
112       0.000009643017
113       0.000013500219
114      -0.000015428904
115       0.000842740324
116       0.001179836450
117      -0.001348384537
118      -0.000098265999
119       0.000252150706
120       0.000353010986
121       0.000075645213
122      -0.000220631876
123      -0.000153584624
124       0.000394098277
125       0.000551737585
126       0.000118229477
127      -0.000344835979
128       0.000065855364
129       0.000097602353
130       0.000136643293
131       0.000065120862
132      -0.000189935849
133       0.000084464291
134      -0.000025200822
 Sym=     1a
 Ene= -3.57651557857984E+01
 Spin= Alpha
 Occup= 2.000000
  1       0.000000000058
  2       0.000000000214
  3       0.000000000213
  4       0.000000000271
  5      -0.000000000095
  6       0.000000000125
  7      -0.000000000011
  8      -0.000000000001
  9       0.890720623694
 10      -0.408348459538
 11       0.199395486796
 12       0.006533910302
 13      -0.002995453432
 14       0.001462672054
 15       0.000410703988
 16      -0.000188285918
 17       0.000091939411
 18      -0.000380420742
 19       0.000174402680
 20      -0.000085160283
 21       0.000097437182
 22      -0.000044669740
 23       0.000021812078
 24      -0.000095121746
 25       0.000043608306
 26      -0.000021293821
 27       0.000011835046
 28      -0.000005425744
 29       0.000002649376
 30      -0.000080998600
 31      -0.000179674413
 32       0.000136689658
 33       0.000214363223
 34       0.000122932802
 35       0.000149472061
 36       0.000331564982
 37      -0.000252242408
 38      -0.000395578563
 39      -0.000226855955
 40      -0.000014195267
 41      -0.000031488509
 42       0.000023955333
 43       0.000037567839
 44       0.000021544364
 45       0.000129661444
 46       0.000287620249
 47      -0.000218810867
 48      -0.000343149667
 49      -0.000196789075
 50      -0.000011917131
 51      -0.000026435063
 52       0.000020110810
 53       0.000031538747
 54       0.000018086804
 55       0.000044013086
 56       0.000040775443
 57      -0.000092084772
 58      -0.000190672879
 59      -0.000083195799
 60      -0.000013820559
 61      -0.000138358643
 62      -0.000021095883
 63      -0.000019544049
 64       0.000044137094
 65       0.000091391295
 66       0.000039876522
 67       0.000006624323
 68       0.000066316590
 69       0.000012092916
 70       0.000011203349
 71      -0.000025300955
 72      -0.000052388757
 73      -0.000022858652
 74      -0.000003797298
 75      -0.000038015044
 76      -0.000000857653
 77       0.000003425013
 78       0.000007046604
 79       0.000017925537
 80       0.000003665369
 81       0.000003897725
 82       0.000022430049
 83       0.000008775717
 84      -0.000007693927
 85       0.000001251081
 86      -0.000004996159
 87      -0.000010279071
 88      -0.000026148463
 89      -0.000005346771
 90      -0.000005685717
 91      -0.000032719312
 92      -0.000012801373
 93       0.000011223338
 94       0.000000798914
 95       0.000001592641
 96       0.000000517195
 97       0.000002477822
 98      -0.000000733439
 99       0.000001622194
100       0.000005385090
101       0.000003607978
102      -0.000003526881
103       0.000002106445
104       0.000000494850
105      -0.000000000001
106      -0.000000000169
107       0.000000000046
108      -0.000000000102
109       0.000181584833
110      -0.000083247066
111       0.000040649321
112      -0.000127539832
113       0.000058470361
114      -0.000028550954
115       0.000014959896
116      -0.000006858319
117       0.000003348899
118       0.000048309285
119       0.000107161620
120      -0.000081524609
121      -0.000127850780
122      -0.000073319732
123      -0.000007997935
124      -0.000017741334
125       0.000013496977
126       0.000021166576
127       0.000012138576
128       0.000018055755
129       0.000016727556
130      -0.000037776491
131      -0.000078220887
132      -0.000034129917
133      -0.000005669689
134      -0.000056759706
 Sym=     1a
 Ene= -3.57651557853672E+01
 Spin= Alpha
 Occup= 2.000000
  1      -0.000000000111
  2      -0.000000000413
  3      -0.000000000377
  4      -0.000000000356
  5       0.000000000035
  6      -0.000000000148
  7      -0.000000000027
  8      -0.000000000001
  9      -0.159271738928
 10      -0.691453756037
 11      -0.704566867293
 12      -0.001168343113
 13      -0.005072181762
 14      -0.005168373245
 15      -0.000073439019
 16      -0.000318823826
 17      -0.000324869775
 18       0.000068023966
 19       0.000295315303
 20       0.000300915533
 21      -0.000017422998
 22      -0.000075639162
 23      -0.000077073506
 24       0.000017008927
 25       0.000073841657
 26       0.000075242049
 27      -0.000002116252
 28      -0.000009187380
 29      -0.000009361611
 30       0.000286209779
 31      -0.000065922763
 32       0.000017580001
 33       0.000118550447
 34      -0.000134039905
 35      -0.000528161698
 36       0.000121651581
 37      -0.000032441516
 38      -0.000218768915
 39       0.000247352587
 40       0.000050159156
 41      -0.000011553197
 42       0.000003080926
 43       0.000020776326
 44      -0.000023490913
 45      -0.000458160632
 46       0.000105528220
 47      -0.000028141791
 48      -0.000189773898
 49       0.000214569143
 50       0.000042109358
 51      -0.000009699043
 52       0.000002586514
 53       0.000017442046
 54      -0.000019720965
 55      -0.000155520885
 56       0.000125188386
 57       0.000133047873
 58      -0.000074829001
 59       0.000037319488
 60      -0.000100146920
 61      -0.000010443168
 62       0.000074542616
 63      -0.000060003970
 64      -0.000063771099
 65       0.000035866239
 66      -0.000017887571
 67       0.000048001353
 68       0.000005005509
 69      -0.000042730505
 70       0.000034396427
 71       0.000036555881
 72      -0.000020559817
 73       0.000010253801
 74      -0.000027516101
 75      -0.000002869339
 76       0.000003030529
 77      -0.000016166695
 78      -0.000021996164
 79       0.000002168597
 80       0.000009508507
 81       0.000010896599
 82       0.000003425797
 83      -0.000004172502
 84      -0.000007349568
 85      -0.000004420713
 86       0.000023582790
 87       0.000032086393
 88      -0.000003163390
 89      -0.000013870314
 90      -0.000015895157
 91      -0.000004997303
 92       0.000006086540
 93       0.000010721011
 94      -0.000002822975
 95      -0.000002536365
 96      -0.000004035557
 97      -0.000001152246
 98       0.000005198419
 99       0.000000404784
100       0.000001540206
101      -0.000001042995
102      -0.000002602025