[Molden Format]
[Title]
 Molden file created by orca_2mkl for BaseName=zn

[Atoms] AU
Zn   1  30          0.0000000000         0.0000000000         0.0000000000 
[GTO]
  1 0
s  21 1.0 
 17852930.0000000000         0.4123579070
  2673038.0000000000         0.7717757416
   608324.4000000000         1.3377553985
   172317.6000000000         2.1941285697
    56222.6900000000         3.4499646393
    20299.8500000000         5.2305841705
     7918.8710000000         7.6515590038
     3285.3400000000        10.6995088691
     1433.5240000000        13.9863623889
      652.2889000000        16.2775838783
      307.4360000000        15.4245354952
      149.1466000000         9.9952769982
       73.4510800000         3.2854508935
       33.9256200000         0.2850925851
       17.1894700000        -0.0094008896
        8.6665950000         0.0038076458
        3.9725050000        -0.0009690554
        1.8946650000         0.0002067055
        0.8593850000        -0.0000457915
        0.1952560000         0.0000046058
        0.0858540000        -0.0000017696
s  21 1.0 
 17852930.0000000000        -0.1273128050
  2673038.0000000000        -0.2383852944
   608324.4000000000        -0.4130011531
   172317.6000000000        -0.6782253645
    56222.6900000000        -1.0666072532
    20299.8500000000        -1.6242818637
     7918.8710000000        -2.3909021918
     3285.3400000000        -3.4094371673
     1433.5240000000        -4.6219903087
      652.2889000000        -5.8433726311
      307.4360000000        -6.4657645725
      149.1466000000        -5.6586057327
       73.4510800000        -2.4058212902
       33.9256200000         2.0301307976
       17.1894700000         3.3861513700
        8.6665950000         1.3274129311
        3.9725050000         0.1013918940
        1.8946650000        -0.0003287246
        0.8593850000         0.0007722473
        0.1952560000        -0.0000357330
        0.0858540000         0.0000143134
s  21 1.0 
 17852930.0000000000         0.0480645259
  2673038.0000000000         0.0900686699
   608324.4000000000         0.1559145820
   172317.6000000000         0.2563314548
    56222.6900000000         0.4026270949
    20299.8500000000         0.6144009735
     7918.8710000000         0.9034231771
     3285.3400000000         1.2941701644
     1433.5240000000         1.7577408886
      652.2889000000         2.2522723893
      307.4360000000         2.5320251049
      149.1466000000         2.3215693307
       73.4510800000         1.0369778104
       33.9256200000        -1.0125827133
       17.1894700000        -2.3774542962
        8.6665950000        -1.2725624574
        3.9725050000         0.6158049478
        1.8946650000         0.7983546283
        0.8593850000         0.1934589070
        0.1952560000         0.0021007914
        0.0858540000        -0.0004531043
s  21 1.0 
 17852930.0000000000         0.0122295451
  2673038.0000000000         0.0229087973
   608324.4000000000         0.0396301188
   172317.6000000000         0.0652214837
    56222.6900000000         0.1023141298
    20299.8500000000         0.1563844265
     7918.8710000000         0.2295395568
     3285.3400000000         0.3296549271
     1433.5240000000         0.4467925834
      652.2889000000         0.5751068916
      307.4360000000         0.6454494526
      149.1466000000         0.5984671103
       73.4510800000         0.2658025257
       33.9256200000        -0.2631640866
       17.1894700000        -0.6610744810
        8.6665950000        -0.3584356156
        3.9725050000         0.2024700670
        1.8946650000         0.3189911178
        0.8593850000         0.1581160446
        0.1952560000        -0.0849440637
        0.0858540000        -0.0837388890
s  21 1.0 
 17852930.0000000000        -0.0284416402
  2673038.0000000000        -0.0545432761
   608324.4000000000        -0.0912994967
   172317.6000000000        -0.1568592834
    56222.6900000000        -0.2330480960
    20299.8500000000        -0.3805209264
     7918.8710000000        -0.5157176997
     3285.3400000000        -0.8140355976
     1433.5240000000        -0.9851155278
      652.2889000000        -1.4554407201
      307.4360000000        -1.3673024272
      149.1466000000        -1.6321005606
       73.4510800000        -0.3624650431
       33.9256200000         0.2618803102
       17.1894700000         2.1570673787
        8.6665950000         0.4997416841
        3.9725050000        -0.4422019116
        1.8946650000        -1.5643617220
        0.8593850000         0.6634780767
        0.1952560000         0.3260049674
        0.0858540000        -0.1470661101
s  21 1.0 
 17852930.0000000000        -0.0377134731
  2673038.0000000000        -0.0704195763
   608324.4000000000        -0.1225219882
   172317.6000000000        -0.2000949761
    56222.6900000000        -0.3169570575
    20299.8500000000        -0.4788157730
     7918.8710000000        -0.7129444565
     3285.3400000000        -1.0073073143
     1433.5240000000        -1.3943126210
      652.2889000000        -1.7551373375
      307.4360000000        -2.0417378911
      149.1466000000        -1.8245498691
       73.4510800000        -0.9102464601
       33.9256200000         0.8967055864
       17.1894700000         2.3352022782
        8.6665950000         1.8783182005
        3.9725050000        -2.8965718635
        1.8946650000        -0.9509643494
        0.8593850000         1.6428486427
        0.1952560000        -0.4633558795
        0.0858540000         0.0848090470
s  21 1.0 
 17852930.0000000000        -0.0318678931
  2673038.0000000000        -0.0569822904
   608324.4000000000        -0.1054818836
   172317.6000000000        -0.1586152688
    56222.6900000000        -0.2783910208
    20299.8500000000        -0.3705528286
     7918.8710000000        -0.6409370714
     3285.3400000000        -0.7564636124
     1433.5240000000        -1.2947666703
      652.2889000000        -1.2553367871
      307.4360000000        -2.0297566548
      149.1466000000        -1.1063858204
       73.4510800000        -1.3282020612
       33.9256200000         1.3862542232
       17.1894700000         1.8543482058
        8.6665950000         2.6543608260
        3.9725050000        -7.0101148794
        1.8946650000         4.8739074198
        0.8593850000        -1.3069000334
        0.1952560000        -0.0291413163
        0.0858540000         0.1330504822
s   1 1.0 
        0.0367810000         0.0598587635
p  17 1.0 
    52867.9300000000        12.5696580799
    12511.7900000000        17.7303601709
     4065.2860000000        25.4950504363
     1557.5950000000        35.0231568679
      663.2892000000        45.4379817297
      304.1561000000        54.6225504855
      147.3680000000        59.1767710629
       74.4546900000        54.5994586173
       38.7149300000        39.8805348840
       20.5702200000        20.5970127847
       11.0542500000         6.0132433156
        5.8746610000         0.7334337953
        3.0529360000         0.0290603515
        1.5472250000         0.0024523215
        0.7541510000         0.0001873289
        0.2653490000         0.0000138447
        0.1020670000        -0.0000010690
p  17 1.0 
    52867.9300000000        -4.5709253632
    12511.7900000000        -6.6019329338
     4065.2860000000        -9.5320180612
     1557.5950000000       -13.1393184654
      663.2892000000       -17.1297344038
      304.1561000000       -20.8944155692
      147.3680000000       -23.1664186137
       74.4546900000       -22.2237316494
       38.7149300000       -16.9710444314
       20.5702200000        -9.2193558810
       11.0542500000        -1.2779116950
        5.8746610000         2.6773718838
        3.0529360000         2.3589885011
        1.5472250000         0.9153934208
        0.7541510000         0.1584010139
        0.2653490000         0.0039472077
        0.1020670000        -0.0001322350
p  17 1.0 
    52867.9300000000         1.4561520305
    12511.7900000000         1.4421714566
     4065.2860000000         2.2405973313
     1557.5950000000         3.0748973407
      663.2892000000         4.0598788500
      304.1561000000         4.8912837976
      147.3680000000         5.5175781039
       74.4546900000         5.2252398709
       38.7149300000         4.0997777378
       20.5702200000         2.1660530226
       11.0542500000         0.3051275600
        5.8746610000        -0.8117051717
        3.0529360000        -0.6516072551
        1.5472250000        -0.3247830720
        0.7541510000         0.0013416584
        0.2653490000         0.1048389125
        0.1020670000         0.0568724650
p  17 1.0 
    52867.9300000000         1.1501580604
    12511.7900000000         2.0883781359
     4065.2860000000         3.1203680874
     1557.5950000000         4.1555358756
      663.2892000000         5.5876495622
      304.1561000000         6.6225116511
      147.3680000000         7.5928252990
       74.4546900000         7.0545150223
       38.7149300000         5.6852361992
       20.5702200000         2.9200818210
       11.0542500000         0.5247587076
        5.8746610000        -1.2382319319
        3.0529360000        -0.9273943057
        1.5472250000        -0.4478530643
        0.7541510000         0.0956131144
        0.2653490000         0.1719076626
        0.1020670000         0.0337965491
p  17 1.0 
    52867.9300000000         3.4217529939
    12511.7900000000         4.5185341422
     4065.2860000000         7.3434141689
     1557.5950000000         8.9936859174
      663.2892000000        13.1560142495
      304.1561000000        14.3456019591
      147.3680000000        17.9718906000
       74.4546900000        15.1155461255
       38.7149300000        13.8336553110
       20.5702200000         6.1373488002
       11.0542500000         2.4730459675
        5.8746610000        -4.9367366868
        3.0529360000        -2.4137351750
        1.5472250000        -0.4482179509
        0.7541510000         1.1777782665
        0.2653490000         0.0140829935
        0.1020670000        -0.0611075668
p  17 1.0 
    52867.9300000000        -3.4436142683
    12511.7900000000        -6.8211039801
     4065.2860000000        -8.0875315851
     1557.5950000000       -13.3525416754
      663.2892000000       -14.6860151770
      304.1561000000       -21.3448754725
      147.3680000000       -19.8622249217
       74.4546900000       -23.4238307429
       38.7149300000       -13.5839492481
       20.5702200000       -13.4914813173
       11.0542500000        -0.9297348669
        5.8746610000         9.9044432606
        3.0529360000         4.0559727433
        1.5472250000        -4.4825666350
        0.7541510000         0.2932889969
        0.2653490000         0.3533078843
        0.1020670000        -0.0881475390
p   1 1.0 
        0.0387550000         0.0245103642
d  10 1.0 
      639.7806000000        48.7032050271
      192.6742000000        56.0151672523
       74.8436800000        58.6869233605
       32.8604800000        50.6778348428
       15.3935300000        36.0862604875
        7.5255120000        20.1241596553
        3.7154290000         8.1586299359
        1.8064590000         2.4411729909
        0.8529730000         0.5363076907
        0.3847800000         0.0751841832
d  10 1.0 
      639.7806000000       -72.0444007333
      192.6742000000       -83.2765164494
       74.8436800000       -87.8440917851
       32.8604800000       -76.6015813993
       15.3935300000       -56.9161578337
        7.5255120000       -31.6758964802
        3.7154290000        -9.2955807160
        1.8064590000         0.2869316839
        0.8529730000         0.9245406899
        0.3847800000         0.2237706648
d  10 1.0 
      639.7806000000       -94.5449052498
      192.6742000000      -111.5884099721
       74.8436800000      -116.9199371825
       32.8604800000      -103.6464623362
       15.3935300000       -82.4096436449
        7.5255120000       -46.6233621986
        3.7154290000        -0.8540420851
        1.8064590000         6.2454871928
        0.8529730000         0.8962898344
        0.3847800000        -0.3247208246
d  10 1.0 
      639.7806000000       105.3293556494
      192.6742000000       110.6668740704
       74.8436800000       128.5250232933
       32.8604800000       106.5679842998
       15.3935300000       101.8272950043
        7.5255120000        42.7670370207
        3.7154290000       -17.2035361545
        1.8064590000        -5.4369504151
        0.8529730000         2.0347971287
        0.3847800000         0.1496143623
d   1 1.0 
        0.1593370000         0.1145576765
f   1 1.0 
        8.6960000000       740.4044565595
f   1 1.0 
        2.7236000000        54.3341104949
f   1 1.0 
        0.8530000000         3.9869005195
g   1 1.0 
        6.8933000000      1330.8962197369
g   1 1.0 
        2.0693000000        48.6389237220
h   1 1.0 
        4.4136000000        92.4530667953

[5D]
[7F]
[9G]
[MO]
 Sym=     1a
 Ene= -3.53304587154233E+02
 Spin= Alpha
 Occup= 2.000000
  1      -0.999999965121
  2       0.000000420366
  3       0.000000080616
  4      -0.000001078422
  5      -0.000000331291
  6       0.000000480161
  7      -0.000000047755
  8      -0.000005733287
  9       0.000000000000
 10      -0.000000000000
 11      -0.000000000000
 12      -0.000000000000
 13      -0.000000000000
 14       0.000000000000
 15      -0.000000000000
 16      -0.000000000000
 17       0.000000000000
 18       0.000000000000
 19       0.000000000000
 20      -0.000000000000
 21      -0.000000000000
 22      -0.000000000000
 23       0.000000000000
 24      -0.000000000000
 25      -0.000000000000
 26       0.000000000000
 27       0.000000000000
 28      -0.000000000000
 29      -0.000000000000
 30      -0.000000000000
 31       0.000000000000
 32       0.000000000000
 33       0.000000000000
 34       0.000000000000
 35      -0.000000000000
 36       0.000000000000
 37       0.000000000000
 38       0.000000000000
 39       0.000000000000
 40       0.000000000000
 41      -0.000000000000
 42      -0.000000000000
 43       0.000000000000
 44      -0.000000000000
 45      -0.000000000000
 46       0.000000000000
 47      -0.000000000000
 48      -0.000000000000
 49      -0.000000000000
 50       0.000000000000
 51      -0.000000000000
 52      -0.000000000000
 53       0.000000000000
 54      -0.000000000000
 55       0.000000000000
 56       0.000000000000
 57       0.000000000000
 58       0.000000000000
 59      -0.000000000000
 60       0.000000000000
 61      -0.000000000000
 62      -0.000000000000
 63      -0.000000000000
 64      -0.000000000000
 65       0.000000000000
 66       0.000000000000
 67      -0.000000000000
 68       0.000000000000
 69       0.000000000000
 70       0.000000000000
 71       0.000000000000
 72      -0.000000000000
 73      -0.000000000000
 74       0.000000000000
 75      -0.000000000000
 76       0.000000000000
 77      -0.000000000000
 78       0.000000000000
 79      -0.000000000000
 80      -0.000000000000
 81      -0.000000000000
 82      -0.000000000000
 83      -0.000000000000
 84      -0.000000000000
 85      -0.000000000000
 86       0.000000000000
 87      -0.000000000000
 88      -0.000000000000
 89       0.000000000000
 90       0.000000000000
 91       0.000000000000
 92       0.000000000000
 93       0.000000000000
 94      -0.000000000000
 95      -0.000000000000
 96       0.000000000000
 97       0.000000000000
 98       0.000000000000
 99      -0.000000000000
100       0.000000000000
101      -0.000000000000
102       0.000000000000
103      -0.000000000000
104       0.000000000000
 Sym=     1a
 Ene= -4.43617265888509E+01
 Spin= Alpha
 Occup= 2.000000
  1      -0.000000409963
  2      -1.000001870463
  3      -0.000000178495
  4       0.000006552100
  5       0.000001971337
  6      -0.000002883769
  7       0.000000231008
  8       0.000044932648
  9       0.000000000000
 10      -0.000000000000
 11      -0.000000000000
 12      -0.000000000000
 13       0.000000000000
 14       0.000000000000
 15      -0.000000000000
 16       0.000000000000
 17      -0.000000000000
 18       0.000000000000
 19      -0.000000000000
 20       0.000000000000
 21      -0.000000000000
 22       0.000000000000
 23      -0.000000000000
 24      -0.000000000000
 25       0.000000000000
 26      -0.000000000000
 27       0.000000000000
 28       0.000000000000
 29      -0.000000000000
 30       0.000000000000
 31       0.000000000000
 32       0.000000000000
 33      -0.000000000000
 34       0.000000000000
 35       0.000000000000
 36       0.000000000000
 37       0.000000000000
 38      -0.000000000000
 39       0.000000000000
 40      -0.000000000000
 41      -0.000000000000
 42      -0.000000000000
 43       0.000000000000
 44      -0.000000000000
 45      -0.000000000000
 46      -0.000000000000
 47      -0.000000000000
 48       0.000000000000
 49      -0.000000000000
 50      -0.000000000000
 51       0.000000000000
 52      -0.000000000000
 53       0.000000000000
 54      -0.000000000000
 55       0.000000000000
 56      -0.000000000000
 57       0.000000000000
 58       0.000000000000
 59       0.000000000000
 60      -0.000000000000
 61      -0.000000000000
 62      -0.000000000000
 63       0.000000000000
 64      -0.000000000000
 65      -0.000000000000
 66      -0.000000000000
 67       0.000000000000
 68       0.000000000000
 69      -0.000000000000
 70      -0.000000000000
 71       0.000000000000
 72       0.000000000000
 73      -0.000000000000
 74      -0.000000000000
 75      -0.000000000000
 76      -0.000000000006
 77       0.000000000000
 78      -0.000000000000
 79      -0.000000000000
 80       0.000000000000
 81       0.000000000000
 82      -0.000000000000
 83       0.000000000005
 84       0.000000000000
 85      -0.000000000011
 86      -0.000000000000
 87       0.000000000000
 88       0.000000000000
 89      -0.000000000000
 90      -0.000000000000
 91      -0.000000000000
 92       0.000000000010
 93      -0.000000000000
 94      -0.000000000000
 95       0.000000000000
 96       0.000000000000
 97      -0.000000000000
 98       0.000000000000
 99      -0.000000000000
100      -0.000000000000
101      -0.000000000000
102      -0.000000000000
103       0.000000000000
104      -0.000000000000
 Sym=     1a
 Ene= -3.89247932364716E+01
 Spin= Alpha
 Occup= 2.000000
  1       0.000000000000
  2       0.000000000000
  3      -0.000000000000
  4       0.000000000000
  5      -0.000000000000
  6      -0.000000000000
  7       0.000000000000
  8       0.000000000000
  9       0.271165122609
 10       0.961674592443
 11      -0.040637833205
 12      -0.000000099307
 13      -0.000000352188
 14       0.000000014883
 15      -0.000000045852
 16      -0.000000162612
 17       0.000000006872
 18       0.000000100238
 19       0.000000355490
 20      -0.000000015022
 21      -0.000000068112
 22      -0.000000241557
 23       0.000000010208
 24       0.000000002537
 25       0.000000008996
 26      -0.000000000380
 27       0.000000964331
 28       0.000003419957
 29      -0.000000144518
 30       0.000000000000
 31      -0.000000000000
 32       0.000000000000
 33       0.000000000000
 34      -0.000000000000
 35      -0.000000000000
 36      -0.000000000000
 37       0.000000000000
 38      -0.000000000000
 39      -0.000000000000
 40       0.000000000000
 41       0.000000000000
 42      -0.000000000000
 43       0.000000000000
 44       0.000000000000
 45       0.000000000000
 46       0.000000000000
 47      -0.000000000000
 48      -0.000000000000
 49       0.000000000000
 50       0.000000000000
 51       0.000000000000
 52      -0.000000000000
 53       0.000000000000
 54       0.000000000000
 55      -0.000000000000
 56      -0.000000000001
 57      -0.000000000003
 58       0.000000000000
 59      -0.000000000000
 60      -0.000000000001
 61       0.000000000004
 62      -0.000000000000
 63      -0.000000000000
 64      -0.000000000002
 65      -0.000000000000
 66       0.000000000000
 67      -0.000000000001
 68       0.000000000002
 69       0.000000000000
 70       0.000000000000
 71       0.000000000001
 72       0.000000000000
 73      -0.000000000000
 74       0.000000000000
 75      -0.000000000001
 76      -0.000000000000
 77       0.000000000000
 78      -0.000000000000
 79       0.000000000000
 80       0.000000000000
 81       0.000000000000
 82       0.000000000000
 83       0.000000000000
 84      -0.000000000000
 85       0.000000000000
 86      -0.000000000000
 87       0.000000000000
 88      -0.000000000000
 89      -0.000000000000
 90      -0.000000000000
 91       0.000000000000
 92       0.000000000000
 93       0.000000000000
 94       0.000000000000
 95      -0.000000000000
 96      -0.000000000000
 97      -0.000000000000
 98      -0.000000000000
 99      -0.000000000000
100       0.000000000001
101       0.000000000000
102       0.000000000000
103      -0.000000000000
104      -0.000000000001
 Sym=     1a
 Ene= -3.89247932364716E+01
 Spin= Alpha
 Occup= 2.000000
  1       0.000000000000
  2       0.000000000000
  3      -0.000000000000
  4       0.000000000000
  5       0.000000000000
  6      -0.000000000000
  7       0.000000000000
  8       0.000000000000
  9       0.368824362569
 10      -0.142809888512
 11      -0.918462794171
 12      -0.000000135072
 13       0.000000052300
 14       0.000000336362
 15      -0.000000062365
 16       0.000000024148
 17       0.000000155305
 18       0.000000136339
 19      -0.000000052791
 20      -0.000000339516
 21      -0.000000092643
 22       0.000000035872
 23       0.000000230703
 24       0.000000003450
 25      -0.000000001336
 26      -0.000000008592
 27       0.000001311632
 28      -0.000000507868
 29      -0.000003266285
 30       0.000000000000
 31      -0.000000000000
 32       0.000000000000
 33      -0.000000000000
 34       0.000000000000
 35       0.000000000000
 36      -0.000000000000
 37       0.000000000000
 38      -0.000000000000
 39       0.000000000000
 40      -0.000000000000
 41       0.000000000000
 42      -0.000000000000
 43       0.000000000000
 44      -0.000000000000
 45       0.000000000000
 46       0.000000000000
 47      -0.000000000000
 48      -0.000000000000
 49      -0.000000000000
 50      -0.000000000000
 51       0.000000000000
 52      -0.000000000000
 53       0.000000000000
 54      -0.000000000000
 55      -0.000000000004
 56      -0.000000000001
 57       0.000000000000
 58       0.000000000000
 59       0.000000000000
 60      -0.000000000001
 61      -0.000000000001
 62      -0.000000000003
 63      -0.000000000001
 64       0.000000000000
 65      -0.000000000000
 66      -0.000000000000
 67      -0.000000000001
 68      -0.000000000000
 69       0.000000000002
 70       0.000000000000
 71      -0.000000000000
 72       0.000000000000
 73       0.000000000000
 74       0.000000000001
 75       0.000000000000
 76      -0.000000000000
 77       0.000000000000
 78      -0.000000000000
 79       0.000000000000
 80       0.000000000000
 81       0.000000000000
 82       0.000000000000
 83       0.000000000000
 84       0.000000000000
 85       0.000000000000
 86       0.000000000000
 87       0.000000000000
 88      -0.000000000000
 89      -0.000000000000
 90      -0.000000000000
 91       0.000000000000
 92       0.000000000000
 93       0.000000000000
 94       0.000000000001
 95      -0.000000000000
 96       0.000000000000
 97       0.000000000000
 98      -0.000000000000
 99      -0.000000000000
100      -0.000000000000
101       0.000000000001
102       0.000000000000
103      -0.000000000000
104       0.000000000000
 Sym=     1a
 Ene= -3.89247932364716E+01
 Spin= Alpha
 Occup= 2.000000
  1       0.000000000000
  2       0.000000000000
  3       0.000000000000
  4      -0.000000000000
  5      -0.000000000000
  6       0.000000000000
  7      -0.000000000000
  8      -0.000000000000
  9      -0.889065827042
 10       0.234066855728
 11      -0.393414083624
 12       0.000000325596
 13      -0.000000085721
 14       0.000000144077
 15       0.000000150335
 16      -0.000000039579
 17       0.000000066523
 18      -0.000000328650
 19       0.000000086524
 20      -0.000000145428
 21       0.000000223319
 22      -0.000000058794
 23       0.000000098819
 24      -0.000000008317
 25       0.000000002190
 26      -0.000000003680
 27      -0.000003161742
 28       0.000000832401
 29      -0.000001399079
 30      -0.000000000000
 31      -0.000000000000
 32       0.000000000000
 33      -0.000000000000
 34      -0.000000000000
 35      -0.000000000000
 36      -0.000000000000
 37       0.000000000000
 38       0.000000000000
 39      -0.000000000000
 40       0.000000000000
 41       0.000000000000
 42       0.000000000000
 43       0.000000000000
 44       0.000000000000
 45       0.000000000000
 46       0.000000000000
 47       0.000000000000
 48       0.000000000000
 49       0.000000000000
 50       0.000000000000
 51       0.000000000000
 52      -0.000000000000
 53      -0.000000000000
 54      -0.000000000000
 55      -0.000000000002
 56       0.000000000003
 57      -0.000000000001
 58      -0.000000000000
 59       0.000000000000
 60       0.000000000003
 61       0.000000000001
 62      -0.000000000001
 63       0.000000000002
 64      -0.000000000000
 65       0.000000000000
 66      -0.000000000000
 67       0.000000000002
 68       0.000000000001
 69       0.000000000001
 70      -0.000000000001
 71       0.000000000000
 72      -0.000000000000
 73       0.000000000000
 74      -0.000000000001
 75      -0.000000000000
 76      -0.000000000000
 77       0.000000000000
 78       0.000000000000
 79      -0.000000000000
 80       0.000000000000
 81       0.000000000000
 82       0.000000000000
 83      -0.000000000000
 84       0.000000000000
 85       0.000000000000
 86       0.000000000000
 87      -0.000000000000
 88       0.000000000000
 89      -0.000000000000
 90       0.000000000000
 91      -0.000000000000
 92      -0.000000000000
 93      -0.000000000000
 94       0.000000000001
 95       0.000000000000
 96      -0.000000000000
 97       0.000000000000
 98       0.000000000000
 99       0.000000000001
100       0.000000000000
101       0.000000000000
102       0.000000000000
103       0.000000000001
104      -0.000000000000
 Sym=     1a
 Ene= -5.63779053310192E+00
 Spin= Alpha
 Occup= 2.000000
  1      -0.000000209578
  2       0.000001092536
  3       0.999811963305
  4       0.000009003570
  5      -0.000001575009
  6      -0.000001854791
  7      -0.000004845641
  8       0.001070094687
  9      -0.000000000000
 10       0.000000000000
 11      -0.000000000000
 12      -0.000000000000
 13       0.000000000000
 14      -0.000000000000
 15       0.000000000000
 16       0.000000000000
 17      -0.000000000000
 18      -0.000000000000
 19      -0.000000000000
 20       0.000000000000
 21       0.000000000000
 22       0.000000000000
 23      -0.000000000000
 24       0.000000000000
 25       0.000000000000
 26      -0.000000000000
 27      -0.000000000000
 28      -0.000000000000
 29       0.000000000000
 30       0.000000000000
 31       0.000000000000
 32       0.000000000000
 33       0.000000000000
 34      -0.000000000000
 35       0.000000000000
 36       0.000000000000
 37       0.000000000000
 38       0.000000000000
 39      -0.000000000000
 40       0.000000000000
 41      -0.000000000000
 42      -0.000000000000
 43      -0.000000000000
 44       0.000000000000
 45      -0.000000000000
 46      -0.000000000000
 47      -0.000000000000
 48       0.000000000000
 49       0.000000000000
 50      -0.000000000000
 51      -0.000000000000
 52      -0.000000000000
 53      -0.000000000000
 54       0.000000000000
 55       0.000000000000
 56      -0.000000000000
 57       0.000000000000
 58       0.000000000000
 59       0.000000000000
 60       0.000000000000
 61       0.000000000000
 62      -0.000000000000
 63       0.000000000000
 64      -0.000000000000
 65      -0.000000000000
 66       0.000000000000
 67      -0.000000000000
 68      -0.000000000000
 69      -0.000000000000
 70      -0.000000000000
 71      -0.000000000000
 72      -0.000000000000
 73      -0.000000000000
 74      -0.000000000000
 75       0.000000000000
 76       0.000000000001
 77       0.000000000000
 78       0.000000000000
 79      -0.000000000000
 80      -0.000000000000
 81       0.000000000000
 82      -0.000000000000
 83      -0.000000000001
 84      -0.000000000000
 85       0.000000000021
 86       0.000000000000
 87      -0.000000000000
 88      -0.000000000000
 89       0.000000000000
 90       0.000000000000
 91       0.000000000000
 92      -0.000000000017
 93       0.000000000000
 94       0.000000000000
 95      -0.000000000000
 96      -0.000000000000
 97       0.000000000000
 98      -0.000000000000
 99       0.000000000000
100       0.000000000000
101       0.000000000000
102      -0.000000000000
103       0.000000000000
104       0.000000000000
 Sym=     1a
 Ene= -3.83933689915299E+00
 Spin= Alpha
 Occup= 2.000000
  1      -0.000000000000
  2      -0.000000000000
  3       0.000000000000
  4       0.000000000000
  5       0.000000000000
  6      -0.000000000000
  7       0.000000000000
  8       0.000000000000
  9      -0.000000004802
 10      -0.000000002871
 11       0.000000002738
 12       0.770893082336
 13       0.460896754356
 14      -0.439582149950
 15      -0.000004894009
 16      -0.000002926000
 17       0.000002790684
 18       0.000004615893
 19       0.000002759721
 20      -0.000002632095
 21      -0.000000955391
 22      -0.000000571203
 23       0.000000544787
 24      -0.000000636749
 25      -0.000000380695
 26       0.000000363090
 27       0.000463481043
 28       0.000277103159
 29      -0.000264288262
 30      -0.000000000000
 31       0.000000000000
 32      -0.000000000000
 33      -0.000000000000
 34      -0.000000000000
 35       0.000000000000
 36      -0.000000000000