
                                 *****************
                                 * O   R   C   A *
                                 *****************

                                            #,                                       
                                            ###                                      
                                            ####                                     
                                            #####                                    
                                            ######                                   
                                           ########,                                 
                                     ,,################,,,,,                         
                               ,,#################################,,                 
                          ,,##########################################,,             
                       ,#########################################, ''#####,          
                    ,#############################################,,   '####,        
                  ,##################################################,,,,####,       
                ,###########''''           ''''###############################       
              ,#####''   ,,,,##########,,,,          '''####'''          '####       
            ,##' ,,,,###########################,,,                        '##       
           ' ,,###''''                  '''############,,,                           
         ,,##''                                '''############,,,,        ,,,,,,###''
      ,#''                                            '''#######################'''  
     '                                                          ''''####''''         
             ,#######,   #######,   ,#######,      ##                                
            ,#'     '#,  ##    ##  ,#'     '#,    #''#        ######   ,####,        
            ##       ##  ##   ,#'  ##            #'  '#       #        #'  '#        
            ##       ##  #######   ##           ,######,      #####,   #    #        
            '#,     ,#'  ##    ##  '#,     ,#' ,#      #,         ##   #,  ,#        
             '#######'   ##     ##  '#######'  #'      '#     #####' # '####'        



                  #######################################################
                  #                        -***-                        #
                  #          Department of theory and spectroscopy      #
                  #    Directorship and core code : Frank Neese         #
                  #        Max Planck Institute fuer Kohlenforschung    #
                  #                Kaiser Wilhelm Platz 1               #
                  #                 D-45470 Muelheim/Ruhr               #
                  #                      Germany                        #
                  #                                                     #
                  #                  All rights reserved                #
                  #                        -***-                        #
                  #######################################################


                         Program Version 5.0.3 -  RELEASE  -


 With contributions from (in alphabetic order):
   Daniel Aravena         : Magnetic Suceptibility
   Michael Atanasov       : Ab Initio Ligand Field Theory (pilot matlab implementation)
   Alexander A. Auer      : GIAO ZORA, VPT2 properties, NMR spectrum
   Ute Becker             : Parallelization
   Giovanni Bistoni       : ED, misc. LED, open-shell LED, HFLD
   Martin Brehm           : Molecular dynamics
   Dmytro Bykov           : SCF Hessian
   Vijay G. Chilkuri      : MRCI spin determinant printing, contributions to CSF-ICE
   Dipayan Datta          : RHF DLPNO-CCSD density
   Achintya Kumar Dutta   : EOM-CC, STEOM-CC
   Dmitry Ganyushin       : Spin-Orbit,Spin-Spin,Magnetic field MRCI
   Miquel Garcia          : C-PCM and meta-GGA Hessian, CC/C-PCM, Gaussian charge scheme
   Yang Guo               : DLPNO-NEVPT2, F12-NEVPT2, CIM, IAO-localization
   Andreas Hansen         : Spin unrestricted coupled pair/coupled cluster methods
   Benjamin Helmich-Paris : MC-RPA, TRAH-SCF, COSX integrals
   Lee Huntington         : MR-EOM, pCC
   Robert Izsak           : Overlap fitted RIJCOSX, COSX-SCS-MP3, EOM
   Marcus Kettner         : VPT2
   Christian Kollmar      : KDIIS, OOCD, Brueckner-CCSD(T), CCSD density, CASPT2, CASPT2-K
   Simone Kossmann        : Meta GGA functionals, TD-DFT gradient, OOMP2, MP2 Hessian
   Martin Krupicka        : Initial AUTO-CI
   Lucas Lang             : DCDCAS
   Marvin Lechner         : AUTO-CI (C++ implementation), FIC-MRCC
   Dagmar Lenk            : GEPOL surface, SMD
   Dimitrios Liakos       : Extrapolation schemes; Compound Job, initial MDCI parallelization
   Dimitrios Manganas     : Further ROCIS development; embedding schemes
   Dimitrios Pantazis     : SARC Basis sets
   Anastasios Papadopoulos: AUTO-CI, single reference methods and gradients
   Taras Petrenko         : DFT Hessian,TD-DFT gradient, ASA, ECA, R-Raman, ABS, FL, XAS/XES, NRVS
   Peter Pinski           : DLPNO-MP2, DLPNO-MP2 Gradient
   Christoph Reimann      : Effective Core Potentials
   Marius Retegan         : Local ZFS, SOC
   Christoph Riplinger    : Optimizer, TS searches, QM/MM, DLPNO-CCSD(T), (RO)-DLPNO pert. Triples
   Tobias Risthaus        : Range-separated hybrids, TD-DFT gradient, RPA, STAB
   Michael Roemelt        : Original ROCIS implementation
   Masaaki Saitow         : Open-shell DLPNO-CCSD energy and density
   Barbara Sandhoefer     : DKH picture change effects
   Avijit Sen             : IP-ROCIS
   Kantharuban Sivalingam : CASSCF convergence, NEVPT2, FIC-MRCI
   Bernardo de Souza      : ESD, SOC TD-DFT
   Georgi Stoychev        : AutoAux, RI-MP2 NMR, DLPNO-MP2 response
   Willem Van den Heuvel  : Paramagnetic NMR
   Boris Wezisla          : Elementary symmetry handling
   Frank Wennmohs         : Technical directorship


 We gratefully acknowledge several colleagues who have allowed us to
 interface, adapt or use parts of their codes:
   Stefan Grimme, W. Hujo, H. Kruse, P. Pracht,  : VdW corrections, initial TS optimization,
                  C. Bannwarth, S. Ehlert          DFT functionals, gCP, sTDA/sTD-DF
   Ed Valeev, F. Pavosevic, A. Kumar             : LibInt (2-el integral package), F12 methods
   Garnet Chan, S. Sharma, J. Yang, R. Olivares  : DMRG
   Ulf Ekstrom                                   : XCFun DFT Library
   Mihaly Kallay                                 : mrcc  (arbitrary order and MRCC methods)
   Jiri Pittner, Ondrej Demel                    : Mk-CCSD
   Frank Weinhold                                : gennbo (NPA and NBO analysis)
   Christopher J. Cramer and Donald G. Truhlar   : smd solvation model
   Lars Goerigk                                  : TD-DFT with DH, B97 family of functionals
   V. Asgeirsson, H. Jonsson                     : NEB implementation
   FAccTs GmbH                                   : IRC, NEB, NEB-TS, DLPNO-Multilevel, CI-OPT
                                                   MM, QMMM, 2- and 3-layer-ONIOM, Crystal-QMMM,
                                                   LR-CPCM, SF, NACMEs, symmetry and pop. for TD-DFT,
                                                   nearIR, NL-DFT gradient (VV10), updates on ESD,
                                                   ML-optimized integration grids
   S Lehtola, MJT Oliveira, MAL Marques          : LibXC Library
   Liviu Ungur et al                             : ANISO software


 Your calculation uses the libint2 library for the computation of 2-el integrals
 For citations please refer to: http://libint.valeyev.net

 Your ORCA version has been built with support for libXC version: 5.1.0
 For citations please refer to: https://tddft.org/programs/libxc/

 This ORCA versions uses:
   CBLAS   interface :  Fast vector & matrix operations
   LAPACKE interface :  Fast linear algebra routines
   SCALAPACK package :  Parallel linear algebra routines
   Shared memory     :  Shared parallel matrices
   BLAS/LAPACK       :  OpenBLAS 0.3.15  USE64BITINT DYNAMIC_ARCH NO_AFFINITY SkylakeX SINGLE_THREADED
        Core in use  :  SkylakeX
   Copyright (c) 2011-2014, The OpenBLAS Project


================================================================================

----- Orbital basis set information -----
Your calculation utilizes the basis: def2-TZVP
   F. Weigend and R. Ahlrichs, Phys. Chem. Chem. Phys. 7, 3297 (2005).

----- AuxJ basis set information -----
Your calculation utilizes the auxiliary basis: def2/J
   F. Weigend, Phys. Chem. Chem. Phys. 8, 1057 (2006).

================================================================================
                                        WARNINGS
                       Please study these warnings very carefully!
================================================================================


INFO   : the flag for use of the SHARK integral package has been found!

================================================================================
                                       INPUT FILE
================================================================================
NAME = orca.inp
|  1> ! B3LYP def2-TZVP EnGrad TightSCF CPCM(Water)
|  2> 
|  3> %pal
|  4>    nprocs 8
|  5> end
|  6> 
|  7> %maxcore 2048
|  8> 
|  9> * xyz 0 1
| 10> C    -0.410000   0.150000   0.150000
| 11> H    -0.730000   1.040000   0.460000
| 12> H    -0.950000  -0.150000  -0.630000
| 13> H    -0.510000  -0.520000   0.900000
| 14> C     1.050000   0.240000  -0.240000
| 15> O     1.660000  -0.750000  -0.660000
| 16> N     1.660000   1.370000  -0.150000
| 17> H     1.180000   2.180000   0.180000
| 18> C     3.070000   1.440000  -0.540000
| 19> H     3.460000   0.530000  -0.480000
| 20> C     3.130000   1.970000  -1.980000
| 21> H     4.080000   2.040000  -2.270000
| 22> H     2.630000   1.350000  -2.580000
| 23> H     2.700000   2.880000  -2.020000
| 24> C     3.850000   2.300000   0.430000
| 25> O     3.430000   3.390000   0.830000
| 26> N     5.000000   1.880000   0.850000
| 27> H     5.360000   1.000000   0.540000
| 28> C     5.750000   2.700000   1.790000
| 29> H     5.450000   3.650000   1.690000
| 30> C     5.470000   2.180000   3.210000
| 31> H     5.980000   2.720000   3.870000
| 32> H     4.490000   2.240000   3.400000
| 33> H     5.760000   1.220000   3.270000
| 34> C     7.220000   2.700000   1.440000
| 35> O     7.829999   1.660000   1.160000
| 36> N     7.870000   3.820000   1.450000
| 37> H     7.390000   4.670000   1.680000
| 38> C     9.279999   3.840000   1.120000
| 39> H     9.620000   4.780000   1.170000
| 40> H     9.779999   3.270000   1.770000
| 41> H     9.410000   3.490000   0.190000
| 42> *
| 43> 
| 44>                          ****END OF INPUT****
================================================================================

                     *******************************
                     * Energy+Gradient Calculation *
                     *******************************

---------------------------------
CARTESIAN COORDINATES (ANGSTROEM)
---------------------------------
  C     -0.410000    0.150000    0.150000
  H     -0.730000    1.040000    0.460000
  H     -0.950000   -0.150000   -0.630000
  H     -0.510000   -0.520000    0.900000
  C      1.050000    0.240000   -0.240000
  O      1.660000   -0.750000   -0.660000
  N      1.660000    1.370000   -0.150000
  H      1.180000    2.180000    0.180000
  C      3.070000    1.440000   -0.540000
  H      3.460000    0.530000   -0.480000
  C      3.130000    1.970000   -1.980000
  H      4.080000    2.040000   -2.270000
  H      2.630000    1.350000   -2.580000
  H      2.700000    2.880000   -2.020000
  C      3.850000    2.300000    0.430000
  O      3.430000    3.390000    0.830000
  N      5.000000    1.880000    0.850000
  H      5.360000    1.000000    0.540000
  C      5.750000    2.700000    1.790000
  H      5.450000    3.650000    1.690000
  C      5.470000    2.180000    3.210000
  H      5.980000    2.720000    3.870000
  H      4.490000    2.240000    3.400000
  H      5.760000    1.220000    3.270000
  C      7.220000    2.700000    1.440000
  O      7.829999    1.660000    1.160000
  N      7.870000    3.820000    1.450000
  H      7.390000    4.670000    1.680000
  C      9.279999    3.840000    1.120000
  H      9.620000    4.780000    1.170000
  H      9.779999    3.270000    1.770000
  H      9.410000    3.490000    0.190000

----------------------------
CARTESIAN COORDINATES (A.U.)
----------------------------
  NO LB      ZA    FRAG     MASS         X           Y           Z
   0 C     6.0000    0    12.011   -0.774788    0.283459    0.283459
   1 H     1.0000    0     1.008   -1.379500    1.965315    0.869274
   2 H     1.0000    0     1.008   -1.795240   -0.283459   -1.190527
   3 H     1.0000    0     1.008   -0.963760   -0.982658    1.700754
   4 C     6.0000    0    12.011    1.984212    0.453534   -0.453534
   5 O     8.0000    0    15.999    3.136945   -1.417295   -1.247219
   6 N     7.0000    0    14.007    3.136945    2.588925   -0.283459
   7 H     1.0000    0     1.008    2.229877    4.119603    0.340151
   8 C     6.0000    0    12.011    5.801459    2.721206   -1.020452
   9 H     1.0000    0     1.008    6.538452    1.001555   -0.907069
  10 C     6.0000    0    12.011    5.914843    3.722760   -3.741658
  11 H     1.0000    0     1.008    7.710083    3.855041   -4.289678
  12 H     1.0000    0     1.008    4.969980    2.551130   -4.875493
  13 H     1.0000    0     1.008    5.102261    5.442411   -3.817247
  14 C     6.0000    0    12.011    7.275446    4.346370    0.812582
  15 O     8.0000    0    15.999    6.481761    6.406172    1.568473
  16 N     7.0000    0    14.007    9.448631    3.552685    1.606267
  17 H     1.0000    0     1.008   10.128932    1.889726    1.020452
  18 C     6.0000    0    12.011   10.865925    5.102261    3.382610
  19 H     1.0000    0     1.008   10.299007    6.897500    3.193637
  20 C     6.0000    0    12.011   10.336802    4.119603    6.066021
  21 H     1.0000    0     1.008   11.300562    5.140055    7.313240
  22 H     1.0000    0     1.008    8.484870    4.232987    6.425069
  23 H     1.0000    0     1.008   10.884823    2.305466    6.179404
  24 C     6.0000    0    12.011   13.643823    5.102261    2.721206
  25 O     8.0000    0    15.999   14.796554    3.136945    2.192082
  26 N     7.0000    0    14.007   14.872145    7.218754    2.740103
  27 H     1.0000    0     1.008   13.965076    8.825021    3.174740
  28 C     6.0000    0    12.011   17.536657    7.256548    2.116493
  29 H     1.0000    0     1.008   18.179165    9.032891    2.210980
  30 H     1.0000    0     1.008   18.481520    6.179404    3.344815
  31 H     1.0000    0     1.008   17.782323    6.595144    0.359048

--------------------------------
INTERNAL COORDINATES (ANGSTROEM)
--------------------------------
 C      0   0   0     0.000000000000     0.00000000     0.00000000
 H      1   0   0     0.995288902781     0.00000000     0.00000000
 H      1   2   0     0.994987437107   109.83369235     0.00000000
 H      1   2   3     1.010643359450   109.26026162   240.29218115
 C      1   2   3     1.513869214959   109.70347459   120.82291686
 O      5   1   2     1.236365641710   121.04662907   180.17433908
 N      5   1   2     1.287283962457   119.41811694   359.20295468
 H      7   5   1     0.997697348899   120.51856002     0.46183654
 C      7   5   1     1.464615990627   118.65489440   180.39535313
 H      9   7   5     0.991866926558   108.57696735   337.33771960
 C      9   7   5     1.535610627731   107.68677326    97.57665215
 H     11   9   7     0.995740930162   109.55112107   179.27058365
 H     11   9   7     0.997196068985   109.27152587   300.20658449
 H     11   9   7     1.007273547752   109.41256021    59.34130673
 C      9   7   5     1.512911101156   110.65739593   221.07917803
 O     15   9   7     1.234706442844   122.28654684   315.06584413
 N     15   9   7     1.294333805477   118.79412975   135.36520453
 H     17  15   9     1.000049998750   120.31744236   359.67087561
 C     17  15   9     1.455506784594   118.98475368   180.39534331
 H     19  17  15     1.001249219725   108.39986563   336.20289383
 C     19  17  15     1.537920674157   108.17986476    96.65933588
 H     21  19  17     0.993629709701   109.63934805   179.42307029
 H     21  19  17     1.000049998750   109.48442430   300.34659963
 H     21  19  17     1.004639238732   109.00702630    59.74152064
 C     19  17  15     1.511092320145   110.59047339   220.92087248
 O     25  19  17     1.237779778475   122.12788029   314.18513439
 N     25  19  17     1.294990347454   119.11054348   135.14480489
 H     27  25  19     1.002895807150   119.64048424   359.40951984
 C     27  25  19     1.448239337955   119.92493775   179.87815126
 H     29  27  25     1.000849978769   109.41019956   179.59514339
 H     29  27  25     0.998699153900   109.34442253   299.48922742
 H     29  27  25     1.002147823428   109.44685195    59.87197800

---------------------------
INTERNAL COORDINATES (A.U.)
---------------------------
 C      0   0   0     0.000000000000     0.00000000     0.00000000
 H      1   0   0     1.880823450388     0.00000000     0.00000000
 H      1   2   0     1.880253762824   109.83369235     0.00000000
 H      1   2   3     1.909839168426   109.26026162   240.29218115
 C      1   2   3     2.860798218847   109.70347459   120.82291686
 O      5   1   2     2.336392464221   121.04662907   180.17433908
 N      5   1   2     2.432614145633   119.41811694   359.20295468
 H      7   5   1     1.885374753958   120.51856002     0.46183654
 C      7   5   1     2.767723113647   118.65489440   180.39535313
 H      9   7   5     1.874356852489   108.57696735   337.33771960
 C      9   7   5     2.901883534750   107.68677326    97.57665215
 H     11   9   7     1.881677658342   109.55112107   179.27058365
 H     11   9   7     1.884427472205   109.27152587   300.20658449
 H     11   9   7     1.903471147194   109.41256021    59.34130673
 C      9   7   5     2.858987646153   110.65739593   221.07917803
 O     15   9   7     2.333257032763   122.28654684   315.06584413
 N     15   9   7     2.445936418227   118.79412975   135.36520453
 H     17  15   9     1.889820617866   120.31744236   359.67087561
 C     17  15   9     2.750509208948   118.98475368   180.39534331
 H     19  17  15     1.892086817083   108.39986563   336.20289383
 C     19  17  15     2.906248889853   108.17986476    96.65933588
 H     21  19  17     1.877688029862   109.63934805   179.42307029
 H     21  19  17     1.889820617866   109.48442430   300.34659963
 H     21  19  17     1.898493024595   109.00702630    59.74152064
 C     19  17  15     2.855550648145   110.59047339   220.92087248
 O     25  19  17     2.339064795423   122.12788029   314.18513439
 N     25  19  17     2.447177102760   119.11054348   135.14480489
 H     27  25  19     1.895198416372   119.64048424   359.40951984
 C     27  25  19     2.736775725107   119.92493775   179.87815126
 H     29  27  25     1.891332361013   109.41019956   179.59514339
 H     29  27  25     1.887267891049   109.34442253   299.48922742
 H     29  27  25     1.893784931984   109.44685195    59.87197800

---------------------
BASIS SET INFORMATION
---------------------
There are 4 groups of distinct atoms

 Group   1 Type C   : 11s6p2d1f contracted to 5s3p2d1f pattern {62111/411/11/1}
 Group   2 Type H   : 5s1p contracted to 3s1p pattern {311/1}
 Group   3 Type O   : 11s6p2d1f contracted to 5s3p2d1f pattern {62111/411/11/1}
 Group   4 Type N   : 11s6p2d1f contracted to 5s3p2d1f pattern {62111/411/11/1}

Atom   0C    basis set group =>   1
Atom   1H    basis set group =>   2
Atom   2H    basis set group =>   2
Atom   3H    basis set group =>   2
Atom   4C    basis set group =>   1
Atom   5O    basis set group =>   3
Atom   6N    basis set group =>   4
Atom   7H    basis set group =>   2
Atom   8C    basis set group =>   1
Atom   9H    basis set group =>   2
Atom  10C    basis set group =>   1
Atom  11H    basis set group =>   2
Atom  12H    basis set group =>   2
Atom  13H    basis set group =>   2
Atom  14C    basis set group =>   1
Atom  15O    basis set group =>   3
Atom  16N    basis set group =>   4
Atom  17H    basis set group =>   2
Atom  18C    basis set group =>   1
Atom  19H    basis set group =>   2
Atom  20C    basis set group =>   1
Atom  21H    basis set group =>   2
Atom  22H    basis set group =>   2
Atom  23H    basis set group =>   2
Atom  24C    basis set group =>   1
Atom  25O    basis set group =>   3
Atom  26N    basis set group =>   4
Atom  27H    basis set group =>   2
Atom  28C    basis set group =>   1
Atom  29H    basis set group =>   2
Atom  30H    basis set group =>   2
Atom  31H    basis set group =>   2
---------------------------------
AUXILIARY/J BASIS SET INFORMATION
---------------------------------
There are 4 groups of distinct atoms

 Group   1 Type C   : 12s5p4d2f1g contracted to 6s4p3d1f1g pattern {711111/2111/211/2/1}
 Group   2 Type H   : 5s2p1d contracted to 3s1p1d pattern {311/2/1}
 Group   3 Type O   : 12s5p4d2f1g contracted to 6s4p3d1f1g pattern {711111/2111/211/2/1}
 Group   4 Type N   : 12s5p4d2f1g contracted to 6s4p3d1f1g pattern {711111/2111/211/2/1}

Atom   0C    basis set group =>   1
Atom   1H    basis set group =>   2
Atom   2H    basis set group =>   2
Atom   3H    basis set group =>   2
Atom   4C    basis set group =>   1
Atom   5O    basis set group =>   3
Atom   6N    basis set group =>   4
Atom   7H    basis set group =>   2
Atom   8C    basis set group =>   1
Atom   9H    basis set group =>   2
Atom  10C    basis set group =>   1
Atom  11H    basis set group =>   2
Atom  12H    basis set group =>   2
Atom  13H    basis set group =>   2
Atom  14C    basis set group =>   1
Atom  15O    basis set group =>   3
Atom  16N    basis set group =>   4
Atom  17H    basis set group =>   2
Atom  18C    basis set group =>   1
Atom  19H    basis set group =>   2
Atom  20C    basis set group =>   1
Atom  21H    basis set group =>   2
Atom  22H    basis set group =>   2
Atom  23H    basis set group =>   2
Atom  24C    basis set group =>   1
Atom  25O    basis set group =>   3
Atom  26N    basis set group =>   4
Atom  27H    basis set group =>   2
Atom  28C    basis set group =>   1
Atom  29H    basis set group =>   2
Atom  30H    basis set group =>   2
Atom  31H    basis set group =>   2


           ************************************************************
           *        Program running with 8 parallel MPI-processes     *
           *              working on a common directory               *
           ************************************************************
------------------------------------------------------------------------------
                           ORCA GTO INTEGRAL CALCULATION
                           -- RI-GTO INTEGRALS CHOSEN --
------------------------------------------------------------------------------
------------------------------------------------------------------------------
                   ___                                                        
                  /   \      - P O W E R E D   B Y -                         
                 /     \                                                     
                 |  |  |   _    _      __       _____    __    __             
                 |  |  |  | |  | |    /  \     |  _  \  |  |  /  |          
                  \  \/   | |  | |   /    \    | | | |  |  | /  /          
                 / \  \   | |__| |  /  /\  \   | |_| |  |  |/  /          
                |  |  |   |  __  | /  /__\  \  |    /   |      \           
                |  |  |   | |  | | |   __   |  |    \   |  |\   \          
                \     /   | |  | | |  |  |  |  | |\  \  |  | \   \       
                 \___/    |_|  |_| |__|  |__|  |_| \__\ |__|  \__/        
                                                                              
                      - O R C A' S   B I G   F R I E N D -                    
                                      &                                       
                       - I N T E G R A L  F E E D E R -                       
                                                                              
 v1 FN, 2020, v2 2021                                                         
------------------------------------------------------------------------------


Reading SHARK input file orca.SHARKINP.tmp ... ok
----------------------
SHARK INTEGRAL PACKAGE
----------------------

Number of atoms                             ...     32
Number of basis functions                   ...    567
Number of shells                            ...    233
Maximum angular momentum                    ...      3
Integral batch strategy                     ... SHARK/LIBINT Hybrid
RI-J (if used) integral strategy            ... SPLIT-RIJ (Revised 2003 algorithm where possible)
Printlevel                                  ...      1
Contraction scheme used                     ... SEGMENTED contraction
Coulomb Range Separation                    ... NOT USED
Exchange Range Separation                   ... NOT USED
Finite Nucleus Model                        ... NOT USED
Auxiliary Coulomb fitting basis             ... AVAILABLE
   # of basis functions in Aux-J            ...    922
   # of shells in Aux-J                     ...    310
   Maximum angular momentum in Aux-J        ...      4
Auxiliary J/K fitting basis                 ... NOT available
Auxiliary Correlation fitting basis         ... NOT available
Auxiliary 'external' fitting basis          ... NOT available
Integral threshold                          ...     2.500000e-11
Primitive cut-off                           ...     2.500000e-12
Primitive pair pre-selection threshold      ...     2.500000e-12

Calculating pre-screening integrals         ... done (  0.0 sec) Dimension = 233
Organizing shell pair data                  ... done (  0.8 sec)
Shell pair information
Total number of shell pairs                 ...     27261
Shell pairs after pre-screening             ...     19780
Total number of primitive shell pairs       ...     81384
Primitive shell pairs kept                  ...     40955
          la=0 lb=0:   5698 shell pairs
          la=1 lb=0:   5803 shell pairs
          la=1 lb=1:   1526 shell pairs
          la=2 lb=0:   2667 shell pairs
          la=2 lb=1:   1390 shell pairs
          la=2 lb=2:    337 shell pairs
          la=3 lb=0:   1287 shell pairs
          la=3 lb=1:    685 shell pairs
          la=3 lb=2:    307 shell pairs
          la=3 lb=3:     80 shell pairs

Calculating one electron integrals          ... done (  0.0 sec)
Calculating RI/J V-Matrix + Cholesky decomp.... done (  0.0 sec)
Calculating Nuclear repulsion               ... done (  0.0 sec) ENN=   1043.882560768873 Eh

SHARK setup successfully completed in   1.2 seconds

Maximum memory used throughout the entire GTOINT-calculation: 31.5 MB


           ************************************************************
           *        Program running with 8 parallel MPI-processes     *
           *              working on a common directory               *
           ************************************************************
-------------------------------------------------------------------------------
                                 ORCA SCF
-------------------------------------------------------------------------------

------------
SCF SETTINGS
------------
Hamiltonian:
 Density Functional     Method          .... DFT(GTOs)
 Exchange Functional    Exchange        .... B88
   X-Alpha parameter    XAlpha          ....  0.666667
   Becke's b parameter  XBeta           ....  0.004200
 Correlation Functional Correlation     .... LYP
 LDA part of GGA corr.  LDAOpt          .... VWN-5
 Gradients option       PostSCFGGA      .... off
 Hybrid DFT is turned on
   Fraction HF Exchange ScalHFX         ....  0.200000
   Scaling of DF-GGA-X  ScalDFX         ....  0.720000
   Scaling of DF-GGA-C  ScalDFC         ....  0.810000
   Scaling of DF-LDA-C  ScalLDAC        ....  1.000000
   Perturbative correction              ....  0.000000
   Density functional embedding theory  .... OFF
   NL short-range parameter             ....  4.800000
 RI-approximation to the Coulomb term is turned on
   Number of AuxJ basis functions       .... 922
   RIJ-COSX (HFX calculated with COS-X)).... on


General Settings:
 Integral files         IntName         .... orca
 Hartree-Fock type      HFTyp           .... RHF
 Total Charge           Charge          ....    0
 Multiplicity           Mult            ....    1
 Number of Electrons    NEL             ....  116
 Basis Dimension        Dim             ....  567
 Nuclear Repulsion      ENuc            ....   1043.8825607689 Eh

Convergence Acceleration:
 DIIS                   CNVDIIS         .... on
   Start iteration      DIISMaxIt       ....    12
   Startup error        DIISStart       ....  0.200000
   # of expansion vecs  DIISMaxEq       ....     5
   Bias factor          DIISBfac        ....   1.050
   Max. coefficient     DIISMaxC        ....  10.000
 Trust-Rad. Augm. Hess. CNVTRAH         .... auto
   Auto Start mean grad. ratio tolernc. ....  1.125000
   Auto Start start iteration           ....    20
   Auto Start num. interpolation iter.  ....    10
   Max. Number of Micro iterations      ....    16
   Max. Number of Macro iterations      .... Maxiter - #DIIS iter
   Number of Davidson start vectors     ....     2
   Converg. threshold I  (grad. norm)   ....   1.000e-05
   Converg. threshold II (energy diff.) ....   1.000e-08
   Grad. Scal. Fac. for Micro threshold ....   0.100
   Minimum threshold for Micro iter.    ....   0.010
   NR start threshold (gradient norm)   ....   0.001
   Initial trust radius                 ....   0.400
   Minimum AH scaling param. (alpha)    ....   1.000
   Maximum AH scaling param. (alpha)    .... 1000.000
   Orbital update algorithm             .... Taylor
   White noise on init. David. guess    .... on
   Maximum white noise                  ....   0.010
   Quad. conv. algorithm                .... NR
 SOSCF                  CNVSOSCF        .... on
   Start iteration      SOSCFMaxIt      ....   150
   Startup grad/error   SOSCFStart      ....  0.003300
 Level Shifting         CNVShift        .... on
   Level shift para.    LevelShift      ....    0.2500
   Turn off err/grad.   ShiftErr        ....    0.0010
 Zerner damping         CNVZerner       .... off
 Static damping         CNVDamp         .... on
   Fraction old density DampFac         ....    0.7000
   Max. Damping (<1)    DampMax         ....    0.9800
   Min. Damping (>=0)   DampMin         ....    0.0000
   Turn off err/grad.   DampErr         ....    0.1000
 Fernandez-Rico         CNVRico         .... off

SCF Procedure:
 Maximum # iterations   MaxIter         ....   125
 SCF integral mode      SCFMode         .... Direct
   Integral package                     .... SHARK and LIBINT hybrid scheme
 Reset frequency        DirectResetFreq ....    20
 Integral Threshold     Thresh          ....  2.500e-11 Eh
 Primitive CutOff       TCut            ....  2.500e-12 Eh

Convergence Tolerance:
 Convergence Check Mode ConvCheckMode   .... Total+1el-Energy
 Convergence forced     ConvForced      .... 0
 Energy Change          TolE            ....  1.000e-08 Eh
 1-El. energy change                    ....  1.000e-05 Eh
 Orbital Gradient       TolG            ....  1.000e-05
 Orbital Rotation angle TolX            ....  1.000e-05
 DIIS Error             TolErr          ....  5.000e-07


Diagonalization of the overlap matrix:
Smallest eigenvalue                        ... 9.067e-05
Time for diagonalization                   ...    0.059 sec
Threshold for overlap eigenvalues          ... 1.000e-08
Number of eigenvalues below threshold      ... 0
Time for construction of square roots      ...    0.027 sec
Total time needed                          ...    0.089 sec

Time for model grid setup =    0.196 sec

------------------------------
INITIAL GUESS: MODEL POTENTIAL
------------------------------
Loading Hartree-Fock densities                     ... done
Calculating cut-offs                               ... done
Initializing the effective Hamiltonian             ... done
Setting up the integral package (SHARK)            ... done
Starting the Coulomb interaction                   ... done (   0.2 sec)
Reading the grid                                   ... done
Mapping shells                                     ... done
Starting the XC term evaluation                    ... done (   0.2 sec)
  promolecular density results
     # of electrons  =    115.986612495
     EX              =    -95.988205763
     EC              =     -3.962788754
     EX+EC           =    -99.950994518
Transforming the Hamiltonian                       ... done (   0.0 sec)
Diagonalizing the Hamiltonian                      ... done (   0.1 sec)
Back transforming the eigenvectors                 ... done (   0.0 sec)
Now organizing SCF variables                       ... done
                      ------------------
                      INITIAL GUESS DONE (   0.7 sec)
                      ------------------
-------------------
DFT GRID GENERATION
-------------------

General Integration Accuracy     IntAcc      ... 4.388
Radial Grid Type                 RadialGrid  ... OptM3 with GC (2021)
Angular Grid (max. ang.)         AngularGrid ... 4 (Lebedev-302)
Angular grid pruning method      GridPruning ... 4 (adaptive)
Weight generation scheme         WeightScheme... Becke
Basis function cutoff            BFCut       ... 1.0000e-11
Integration weight cutoff        WCut        ... 1.0000e-14
Angular grids for H and He will be reduced by one unit
Partially contracted basis set               ... off
Rotationally invariant grid construction     ... off

Total number of grid points                  ...   144352
Total number of batches                      ...     2273
Average number of points per batch           ...       63
Average number of grid points per atom       ...     4511
Time for grid setup =    0.785 sec

--------------------
COSX GRID GENERATION
--------------------

GRIDX 1
-------
General Integration Accuracy     IntAcc      ... 3.816
Radial Grid Type                 RadialGrid  ... OptM3 with GC (2021)
Angular Grid (max. ang.)         AngularGrid ... 1 (Lebedev-50)
Angular grid pruning method      GridPruning ... 4 (adaptive)
Weight generation scheme         WeightScheme... Becke
Basis function cutoff            BFCut       ... 1.0000e-11
Integration weight cutoff        WCut        ... 1.0000e-14
Angular grids for H and He will be reduced by one unit
Partially contracted basis set               ... on
Rotationally invariant grid construction     ... off

Total number of grid points                  ...    18397
Total number of batches                      ...      306
Average number of points per batch           ...       60
Average number of grid points per atom       ...      575
UseSFitting                                  ... on

GRIDX 2
-------
General Integration Accuracy     IntAcc      ... 4.020
Radial Grid Type                 RadialGrid  ... OptM3 with GC (2021)
Angular Grid (max. ang.)         AngularGrid ... 2 (Lebedev-110)
Angular grid pruning method      GridPruning ... 4 (adaptive)
Weight generation scheme         WeightScheme... Becke
Basis function cutoff            BFCut       ... 1.0000e-11
Integration weight cutoff        WCut        ... 1.0000e-14
Angular grids for H and He will be reduced by one unit
Partially contracted basis set               ... on
Rotationally invariant grid construction     ... off

Total number of grid points                  ...    39318
Total number of batches                      ...      630
Average number of points per batch           ...       62
Average number of grid points per atom       ...     1229
UseSFitting                                  ... on

GRIDX 3
-------
General Integration Accuracy     IntAcc      ... 4.338
Radial Grid Type                 RadialGrid  ... OptM3 with GC (2021)
Angular Grid (max. ang.)         AngularGrid ... 3 (Lebedev-194)
Angular grid pruning method      GridPruning ... 4 (adaptive)
Weight generation scheme         WeightScheme... Becke
Basis function cutoff            BFCut       ... 1.0000e-11
Integration weight cutoff        WCut        ... 1.0000e-14
Angular grids for H and He will be reduced by one unit
Partially contracted basis set               ... on
Rotationally invariant grid construction     ... off

Total number of grid points                  ...    85930
Total number of batches                      ...     1359
Average number of points per batch           ...       63
Average number of grid points per atom       ...     2685
UseSFitting                                  ... on

Time for X-Grid setup             =    0.913 sec


--------------------
CPCM SOLVATION MODEL
--------------------
CPCM parameters:
  Epsilon                                         ...      80.4000
  Refrac                                          ...       1.3300
  Rsolv                                           ...       1.3000
  Surface type                                    ... GAUSSIAN VDW
  Epsilon function type                           ...         CPCM
Radii:
 Radius for C  used is    3.8550 Bohr (=   2.0400 Ang.)
 Radius for H  used is    2.4944 Bohr (=   1.3200 Ang.)
 Radius for O  used is    3.4469 Bohr (=   1.8240 Ang.)
 Radius for N  used is    3.5149 Bohr (=   1.8600 Ang.)
Calculating surface                               ...        done! (  0.0s)
GEPOL surface points                              ...         1733
GEPOL Volume                                      ...    1747.8170
GEPOL Surface-area                                ...     985.0983
Calculating surface distance matrix               ...        done! (  0.0s)
Performing Cholesky decomposition & store         ...        done! (  0.1s)
Overall time for CPCM initialization              ...                 0.1s
--------------
SCF ITERATIONS
--------------
ITER       Energy         Delta-E        Max-DP      RMS-DP      [F,P]     Damp
               ***  Starting incremental Fock matrix formation  ***
  0   -742.2911233869   0.000000000000 0.11143689  0.00110666  0.3210166 0.7000
  1   -742.6189205873  -0.327797200415 0.10914230  0.00086108  0.1284618 0.7000
                               ***Turning on DIIS***
  2   -742.7416873850  -0.122766797660 0.12269382  0.00124713  0.0510560 0.0000
  3   -742.9427532087  -0.201065823741 0.10566475  0.00068574  0.0621346 0.0000
  4   -742.9826791916  -0.039925982861 0.02940039  0.00020134  0.0160181 0.0000
  5   -742.9853864470  -0.002707255420 0.01190959  0.00008455  0.0064550 0.0000
                      *** Initiating the SOSCF procedure ***
                           *** Shutting down DIIS ***
                      *** Re-Reading the Fockian *** 
                      *** Removing any level shift *** 
ITER      Energy       Delta-E        Grad      Rot      Max-DP    RMS-DP
  6   -742.98555446  -0.0001680108  0.000222  0.000222  0.002771  0.000029
               *** Restarting incremental Fock matrix formation ***
  7   -742.98557799  -0.0000235293  0.000092  0.000271  0.001778  0.000019
  8   -742.98557816  -0.0000001718  0.000202  0.000316  0.000318  0.000005
  9   -742.98558001  -0.0000018544  0.000045  0.000107  0.000238  0.000003
 10   -742.98557994   0.0000000765  0.000048  0.000053  0.000072  0.000001
 11   -742.98558009  -0.0000001526  0.000006  0.000011  0.000063  0.000001
 12   -742.98558009   0.0000000019  0.000006  0.000005  0.000025  0.000000
                  ***Gradient check signals convergence***
              ***Rediagonalizing the Fockian in SOSCF/NRSCF***

               *****************************************************
               *                     SUCCESS                       *
               *           SCF CONVERGED AFTER  13 CYCLES          *
               *****************************************************

Old exchange energy                            =    -19.599069129 Eh
New exchange energy                            =    -19.599081930 Eh
Exchange energy change after final integration =     -0.000012801 Eh
Total energy after final integration           =   -742.985592886 Eh
Final COS-X integration done in                =    12.485 sec

----------------
TOTAL SCF ENERGY
----------------

Total Energy       :         -742.98559289 Eh          -20217.66583 eV

Components:
Nuclear Repulsion  :         1043.88256077 Eh           28405.48859 eV
Electronic Energy  :        -1786.86815366 Eh          -48623.15441 eV
One Electron Energy:        -3083.46691023 Eh          -83905.40030 eV
Two Electron Energy:         1296.59875657 Eh           35282.24588 eV
Max COSX asymmetry :            0.00000142 Eh               0.00004 eV
CPCM Dielectric    :           -0.04036503 Eh              -1.09839 eV

Virial components:
Potential Energy   :        -1485.32948111 Eh          -40417.86999 eV
Kinetic Energy     :          742.34388822 Eh           20200.20416 eV
Virial Ratio       :            2.00086443


DFT components:
N(Alpha)           :       58.000026320347 electrons
N(Beta)            :       58.000026320347 electrons
N(Total)           :      116.000052640694 electrons
E(X)               :      -77.874738377741 Eh       
E(C)               :       -4.679021146568 Eh       
E(XC)              :      -82.553759524308 Eh       
DFET-embed. en.    :        0.000000000000 Eh       
CPCM Solvation Model Properties:
Surface-charge          :           -0.02741090
Charge-correction       :           -0.00023677 Eh              -0.00644 eV
Free-energy (cav+disp)  :  This term is not implemented in the current solvation scheme

---------------
SCF CONVERGENCE
---------------

  Last Energy change         ...    2.3301e-09  Tolerance :   1.0000e-08
  Last MAX-Density change    ...    2.2204e-15  Tolerance :   1.0000e-07
  Last RMS-Density change    ...    1.4221e-17  Tolerance :   5.0000e-09
  Last Orbital Gradient      ...    3.4816e-07  Tolerance :   1.0000e-05
  Last Orbital Rotation      ...    9.1634e-07  Tolerance :   1.0000e-05

             **** THE GBW FILE WAS UPDATED (orca.gbw) ****
             **** DENSITY orca.scfp WAS UPDATED ****
             **** ENERGY FILE WAS UPDATED (orca.en.tmp) ****
             **** THE GBW FILE WAS UPDATED (orca.gbw) ****
             **** DENSITY orca.scfp WAS UPDATED ****
----------------
ORBITAL ENERGIES
----------------

  NO   OCC          E(Eh)            E(eV) 
   0   2.0000     -19.086799      -519.3782 
   1   2.0000     -19.086091      -519.3589 
   2   2.0000     -19.077294      -519.1196 
   3   2.0000     -14.344960      -390.3462 
   4   2.0000     -14.341978      -390.2651 
   5   2.0000     -14.339163      -390.1885 
   6   2.0000     -10.267556      -279.3944 
   7   2.0000     -10.264039      -279.2987 
   8   2.0000     -10.261456      -279.2284 
   9   2.0000     -10.208976      -277.8004 
  10   2.0000     -10.207612      -277.7632 
  11   2.0000     -10.167950      -276.6840 
  12   2.0000     -10.137913      -275.8666 
  13   2.0000     -10.135522      -275.8016 
  14   2.0000     -10.134891      -275.7844 
  15   2.0000      -1.053468       -28.6663 
  16   2.0000      -1.043576       -28.3971 
  17   2.0000      -1.038137       -28.2492 
  18   2.0000      -0.937688       -25.5158 
  19   2.0000      -0.931629       -25.3509 
  20   2.0000      -0.930780       -25.3278 
  21   2.0000      -0.806646       -21.9499 
  22   2.0000      -0.781582       -21.2679 
  23   2.0000      -0.743041       -20.2192 
  24   2.0000      -0.733410       -19.9571 
  25   2.0000      -0.688447       -18.7336 
  26   2.0000      -0.656271       -17.8580 
  27   2.0000      -0.607708       -16.5366 
  28   2.0000      -0.598154       -16.2766 
  29   2.0000      -0.594318       -16.1722 
  30   2.0000      -0.564373       -15.3574 
  31   2.0000      -0.514438       -13.9986 
  32   2.0000      -0.500153       -13.6099 
  33   2.0000      -0.485600       -13.2138 
  34   2.0000      -0.478002       -13.0071 
  35   2.0000      -0.471408       -12.8277 
  36   2.0000      -0.469846       -12.7852 
  37   2.0000      -0.462474       -12.5846 
  38   2.0000      -0.452873       -12.3233 
  39   2.0000      -0.435844       -11.8599 
  40   2.0000      -0.431128       -11.7316 
  41   2.0000      -0.428008       -11.6467 
  42   2.0000      -0.414272       -11.2729 
  43   2.0000      -0.407980       -11.1017 
  44   2.0000      -0.405367       -11.0306 
  45   2.0000      -0.403161       -10.9706 
  46   2.0000      -0.387212       -10.5366 
  47   2.0000      -0.383086       -10.4243 
  48   2.0000      -0.380666       -10.3585 
  49   2.0000      -0.378259       -10.2930 
  50   2.0000      -0.361615        -9.8401 
  51   2.0000      -0.354138        -9.6366 
  52   2.0000      -0.277230        -7.5438 
  53   2.0000      -0.273278        -7.4363 
  54   2.0000      -0.266563        -7.2536 
  55   2.0000      -0.259458        -7.0602 
  56   2.0000      -0.258270        -7.0279 
  57   2.0000      -0.250568        -6.8183 
  58   0.0000       0.009616         0.2617 
  59   0.0000       0.021805         0.5934 
  60   0.0000       0.037593         1.0230 
  61   0.0000       0.038483         1.0472 
  62   0.0000       0.051729         1.4076 
  63   0.0000       0.058684         1.5969 
  64   0.0000       0.076904         2.0927 
  65   0.0000       0.080252         2.1838 
  66   0.0000       0.084351         2.2953 
  67   0.0000       0.098108         2.6697 
  68   0.0000       0.108474         2.9517 
  69   0.0000       0.112393         3.0584 
  70   0.0000       0.121956         3.3186 
  71   0.0000       0.134054         3.6478 
  72   0.0000       0.135958         3.6996 
  73   0.0000       0.139000         3.7824 
  74   0.0000       0.142344         3.8734 
  75   0.0000       0.143874         3.9150 
  76   0.0000       0.145982         3.9724 
  77   0.0000       0.155287         4.2256 
  78   0.0000       0.157602         4.2886 
  79   0.0000       0.161622         4.3980 
  80   0.0000       0.168498         4.5851 
  81   0.0000       0.171351         4.6627 
  82   0.0000       0.176819         4.8115 
  83   0.0000       0.186687         5.0800 
  84   0.0000       0.191753         5.2179 
  85   0.0000       0.198536         5.4024 
  86   0.0000       0.202878         5.5206 
  87   0.0000       0.209715         5.7066 
  88   0.0000       0.213836         5.8188 
  89   0.0000       0.218801         5.9539 
  90   0.0000       0.219276         5.9668 
  91   0.0000       0.229156         6.2356 
  92   0.0000       0.236862         6.4454 
  93   0.0000       0.249770         6.7966 
  94   0.0000       0.250836         6.8256 
  95   0.0000       0.257294         7.0013 
  96   0.0000       0.259879         7.0717 
  97   0.0000       0.279093         7.5945 
  98   0.0000       0.284273         7.7355 
  99   0.0000       0.308922         8.4062 
 100   0.0000       0.320095         8.7102 
 101   0.0000       0.324565         8.8319 
 102   0.0000       0.329365         8.9625 
 103   0.0000       0.337109         9.1732 
 104   0.0000       0.347523         9.4566 
 105   0.0000       0.349825         9.5192 
 106   0.0000       0.356254         9.6942 
 107   0.0000       0.370732        10.0881 
 108   0.0000       0.378166        10.2904 
 109   0.0000       0.388710        10.5773 
 110   0.0000       0.390577        10.6281 
 111   0.0000       0.400563        10.8999 
 112   0.0000       0.403505        10.9799 
 113   0.0000       0.412324        11.2199 
 114   0.0000       0.416241        11.3265 
 115   0.0000       0.418027        11.3751 
 116   0.0000       0.425205        11.5704 
 117   0.0000       0.431232        11.7344 
 118   0.0000       0.438747        11.9389 
 119   0.0000       0.443788        12.0761 
 120   0.0000       0.448710        12.2100 
 121   0.0000       0.449471        12.2307 
 122   0.0000       0.453684        12.3454 
 123   0.0000       0.456999        12.4356 
 124   0.0000       0.470067        12.7912 
 125   0.0000       0.472813        12.8659 
 126   0.0000       0.474267        12.9055 
 127   0.0000       0.477134        12.9835 
 128   0.0000       0.486184        13.2297 
 129   0.0000       0.494510        13.4563 
 130   0.0000       0.496849        13.5200 
 131   0.0000       0.499231        13.5848 
 132   0.0000       0.501420        13.6443 
 133   0.0000       0.512994        13.9593 
 134   0.0000       0.515068        14.0157 
 135   0.0000       0.517589        14.0843 
 136   0.0000       0.525326        14.2948 
 137   0.0000       0.529975        14.4213 
 138   0.0000       0.539666        14.6851 
 139   0.0000       0.548193        14.9171 
 140   0.0000       0.556371        15.1396 
 141   0.0000       0.560195        15.2437 
 142   0.0000       0.564753        15.3677 
 143   0.0000       0.570843        15.5334 
 144   0.0000       0.582757        15.8576 
 145   0.0000       0.588650        16.0180 
 146   0.0000       0.601883        16.3781 
 147   0.0000       0.606936        16.5156 
 148   0.0000       0.611755        16.6467 
 149   0.0000       0.621732        16.9182 
 150   0.0000       0.623713        16.9721 
 151   0.0000       0.636689        17.3252 
 152   0.0000       0.643278        17.5045 
 153   0.0000       0.649740        17.6803 
 154   0.0000       0.659056        17.9338 
 155   0.0000       0.668533        18.1917 
 156   0.0000       0.678190        18.4545 
 157   0.0000       0.683237        18.5918 
 158   0.0000       0.689424        18.7602 
 159   0.0000       0.709754        19.3134 
 160   0.0000       0.732091        19.9212 
 161   0.0000       0.739757        20.1298 
 162   0.0000       0.746304        20.3080 
 163   0.0000       0.756012        20.5721 
 164   0.0000       0.769442        20.9376 
 165   0.0000       0.791506        21.5380 
 166   0.0000       0.797528        21.7018 
 167   0.0000       0.811560        22.0837 
 168   0.0000       0.827037        22.5048 
 169   0.0000       0.829621        22.5751 
 170   0.0000       0.845550        23.0086 
 171   0.0000       0.872662        23.7463 
 172   0.0000       0.882438        24.0124 
 173   0.0000       0.888363        24.1736 
 174   0.0000       0.891045        24.2466 
 175   0.0000       0.902066        24.5465 
 176   0.0000       0.905098        24.6290 
 177   0.0000       0.911020        24.7901 
 178   0.0000       0.921254        25.0686 
 179   0.0000       0.923454        25.1285 
 180   0.0000       0.933119        25.3915 
 181   0.0000       0.947905        25.7938 
 182   0.0000       0.955447        25.9990 
 183   0.0000       0.962650        26.1950 
 184   0.0000       0.985678        26.8217 
 185   0.0000       0.989734        26.9320 
 186   0.0000       0.994694        27.0670 
 187   0.0000       1.004432        27.3320 
 188   0.0000       1.009027        27.4570 
 189   0.0000       1.016397        27.6576 
 190   0.0000       1.029555        28.0156 
 191   0.0000       1.034410        28.1477 
 192   0.0000       1.047823        28.5127 
 193   0.0000       1.055436        28.7199 
 194   0.0000       1.072221        29.1766 
 195   0.0000       1.076301        29.2876 
 196   0.0000       1.086723        29.5712 
 197   0.0000       1.117198        30.4005 
 198   0.0000       1.122510        30.5451 
 199   0.0000       1.152444        31.3596 
 200   0.0000       1.162075        31.6217 
 201   0.0000       1.173368        31.9290 
 202   0.0000       1.210740        32.9459 
 203   0.0000       1.219933        33.1961 
 204   0.0000       1.234593        33.5950 
 205   0.0000       1.244819        33.8733 
 206   0.0000       1.256279        34.1851 
 207   0.0000       1.268629        34.5212 
 208   0.0000       1.289575        35.0911 
 209   0.0000       1.298957        35.3464 
 210   0.0000       1.306230        35.5443 
 211   0.0000       1.324072        36.0298 
 212   0.0000       1.347621        36.6706 
 213   0.0000       1.367733        37.2179 
 214   0.0000       1.370931        37.3049 
 215   0.0000       1.390761        37.8445 
 216   0.0000       1.405383        38.2424 
 217   0.0000       1.427592        38.8468 
 218   0.0000       1.428364        38.8678 
 219   0.0000       1.441406        39.2227 
 220   0.0000       1.451646        39.5013 
 221   0.0000       1.457877        39.6709 
 222   0.0000       1.473861        40.1058 
 223   0.0000       1.481374        40.3102 
 224   0.0000       1.488099        40.4932 
 225   0.0000       1.494416        40.6651 
 226   0.0000       1.499299        40.7980 
 227   0.0000       1.508496        41.0483 
 228   0.0000       1.512779        41.1648 
 229   0.0000       1.525871        41.5211 
 230   0.0000       1.528057        41.5805 
 231   0.0000       1.533816        41.7373 
 232   0.0000       1.548190        42.1284 
 233   0.0000       1.553349        42.2688 
 234   0.0000       1.565755        42.6064 
 235   0.0000       1.572909        42.8010 
 236   0.0000       1.573964        42.8297 
 237   0.0000       1.590527        43.2805 
 238   0.0000       1.596107        43.4323 
 239   0.0000       1.602608        43.6092 
 240   0.0000       1.603937        43.6453 
 241   0.0000       1.610785        43.8317 
 242   0.0000       1.623261        44.1712 
 243   0.0000       1.629786        44.3487 
 244   0.0000       1.636064        44.5196 
 245   0.0000       1.638662        44.5903 
 246   0.0000       1.653503        44.9941 
 247   0.0000       1.657532        45.1037 
 248   0.0000       1.668386        45.3991 
 249   0.0000       1.678174        45.6654 
 250   0.0000       1.700186        46.2644 
 251   0.0000       1.716707        46.7140 
 252   0.0000       1.728798        47.0430 
 253   0.0000       1.731407        47.1140 
 254   0.0000       1.741487        47.3883 
 255   0.0000       1.755522        47.7702 
 256   0.0000       1.763515        47.9877 
 257   0.0000       1.786245        48.6062 
 258   0.0000       1.793154        48.7942 
 259   0.0000       1.810582        49.2684 
 260   0.0000       1.825340        49.6700 
 261   0.0000       1.827225        49.7213 
 262   0.0000       1.838182        50.0195 
 263   0.0000       1.861325        50.6492 
 264   0.0000       1.871645        50.9300 
 265   0.0000       1.875697        51.0403 
 266   0.0000       1.908251        51.9262 
 267   0.0000       1.920812        52.2680 
 268   0.0000       1.937955        52.7344 
 269   0.0000       1.946183        52.9583 
 270   0.0000       1.967863        53.5483 
 271   0.0000       1.972969        53.6872 
 272   0.0000       1.980140        53.8823 
 273   0.0000       1.988536        54.1108 
 274   0.0000       2.002727        54.4970 
 275   0.0000       2.006904        54.6106 
 276   0.0000       2.031813        55.2884 
 277   0.0000       2.054542        55.9069 
 278   0.0000       2.060923        56.0806 
 279   0.0000       2.067246        56.2526 
 280   0.0000       2.074530        56.4508 
 281   0.0000       2.086208        56.7686 
 282   0.0000       2.097847        57.0853 
 283   0.0000       2.104296        57.2608 
 284   0.0000       2.119074        57.6629 
 285   0.0000       2.127069        57.8805 
 286   0.0000       2.129237        57.9395 
 287   0.0000       2.146610        58.4122 
 288   0.0000       2.172550        59.1181 
 289   0.0000       2.187852        59.5345 
 290   0.0000       2.200011        59.8653 
 291   0.0000       2.212721        60.2112 
 292   0.0000       2.218880        60.3788 
 293   0.0000       2.236150        60.8487 
 294   0.0000       2.247104        61.1468 
 295   0.0000       2.251478        61.2658 
 296   0.0000       2.272239        61.8308 
 297   0.0000       2.281631        62.0863 
 298   0.0000       2.285023        62.1786 
 299   0.0000       2.311717        62.9050 
 300   0.0000       2.320583        63.1463 
 301   0.0000       2.325835        63.2892 
 302   0.0000       2.332606        63.4734 
 303   0.0000       2.343454        63.7686 
 304   0.0000       2.363356        64.3102 
 305   0.0000       2.375609        64.6436 
 306   0.0000       2.387113        64.9567 
 307   0.0000       2.393859        65.1402 
 308   0.0000       2.406821        65.4929 
 309   0.0000       2.414186        65.6934 
 310   0.0000       2.430300        66.1318 
 311   0.0000       2.437137        66.3179 
 312   0.0000       2.448403        66.6244 
 313   0.0000       2.455427        66.8156 
 314   0.0000       2.470111        67.2151 
 315   0.0000       2.474082        67.3232 
 316   0.0000       2.492630        67.8279 
 317   0.0000       2.504694        68.1562 
 318   0.0000       2.515743        68.4569 
 319   0.0000       2.531187        68.8771 
 320   0.0000       2.546162        69.2846 
 321   0.0000       2.555982        69.5518 
 322   0.0000       2.580613        70.2220 
 323   0.0000       2.611910        71.0737 
 324   0.0000       2.624513        71.4166 
 325   0.0000       2.641201        71.8707 
 326   0.0000       2.649577        72.0987 
 327   0.0000       2.660012        72.3826 
 328   0.0000       2.661961        72.4356 
 329   0.0000       2.672842        72.7317 
 330   0.0000       2.675981        72.8171 
 331   0.0000       2.690640        73.2160 
 332   0.0000       2.697018        73.3896 
 333   0.0000       2.711458        73.7825 
 334   0.0000       2.716797        73.9278 
 335   0.0000       2.731555        74.3294 
 336   0.0000       2.734155        74.4001 
 337   0.0000       2.755626        74.9844 
 338   0.0000       2.769536        75.3629 
 339   0.0000       2.772039        75.4310 
 340   0.0000       2.776441        75.5508 
 341   0.0000       2.784344        75.7658 
 342   0.0000       2.806358        76.3649 
 343   0.0000       2.810164        76.4684 
 344   0.0000       2.821470        76.7761 
 345   0.0000       2.830668        77.0264 
 346   0.0000       2.841797        77.3292 
 347   0.0000       2.845433        77.4282 
 348   0.0000       2.858411        77.7813 
 349   0.0000       2.885385        78.5153 
 350   0.0000       2.907926        79.1287 
 351   0.0000       2.911758        79.2330 
 352   0.0000       2.928264        79.6821 
 353   0.0000       2.937548        79.9347 
 354   0.0000       2.951193        80.3060 
 355   0.0000       2.953057        80.3568 
 356   0.0000       2.961642        80.5904 
 357   0.0000       2.966307        80.7173 
 358   0.0000       2.986614        81.2699 
 359   0.0000       2.989804        81.3567 
 360   0.0000       3.003871        81.7395 
 361   0.0000       3.008520        81.8660 
 362   0.0000       3.031663        82.4957 
 363   0.0000       3.043487        82.8175 
 364   0.0000       3.046977        82.9125 
 365   0.0000       3.052605        83.0656 
 366   0.0000       3.060048        83.2681 
 367   0.0000       3.066782        83.4514 
 368   0.0000       3.086688        83.9931 
 369   0.0000       3.094551        84.2070 
 370   0.0000       3.098187        84.3060 
 371   0.0000       3.109711        84.6195 
 372   0.0000       3.116497        84.8042 
 373   0.0000       3.122676        84.9723 
 374   0.0000       3.131974        85.2253 
 375   0.0000       3.142669        85.5164 
 376   0.0000       3.157775        85.9274 
 377   0.0000       3.178336        86.4869 
 378   0.0000       3.191669        86.8497 
 379   0.0000       3.194849        86.9363 
 380   0.0000       3.211792        87.3973 
 381   0.0000       3.215940        87.5102 
 382   0.0000       3.221719        87.6674 
 383   0.0000       3.228065        87.8401 
 384   0.0000       3.250301        88.4452 
 385   0.0000       3.254716        88.5653 
 386   0.0000       3.271085        89.0108 
 387   0.0000       3.278539        89.2136 
 388   0.0000       3.296126        89.6921 
 389   0.0000       3.314409        90.1897 
 390   0.0000       3.325055        90.4793 
 391   0.0000       3.331602        90.6575 
 392   0.0000       3.336620        90.7940 
 393   0.0000       3.344621        91.0118 
 394   0.0000       3.361404        91.4685 
 395   0.0000       3.363702        91.5310 
 396   0.0000       3.374550        91.8262 
 397   0.0000       3.383790        92.0776 
 398   0.0000       3.395453        92.3950 
 399   0.0000       3.400752        92.5392 
 400   0.0000       3.410082        92.7930 
 401   0.0000       3.423342        93.1539 
 402   0.0000       3.430571        93.3506 
 403   0.0000       3.438110        93.5557 
 404   0.0000       3.449364        93.8620 
 405   0.0000       3.453070        93.9628 
 406   0.0000       3.462450        94.2180 
 407   0.0000       3.475474        94.5724 
 408   0.0000       3.487023        94.8867 
 409   0.0000       3.498852        95.2086 
 410   0.0000       3.511421        95.5506 
 411   0.0000       3.523977        95.8923 
 412   0.0000       3.537995        96.2737 
 413   0.0000       3.556503        96.7774 
 414   0.0000       3.558099        96.8208 
 415   0.0000       3.569218        97.1233 
 416   0.0000       3.588497        97.6480 
 417   0.0000       3.591226        97.7222 
 418   0.0000       3.598284        97.9143 
 419   0.0000       3.633000        98.8590 
 420   0.0000       3.638701        99.0141 
 421   0.0000       3.642089        99.1063 
 422   0.0000       3.673035        99.9484 
 423   0.0000       3.674934       100.0000 
 424   0.0000       3.701608       100.7259 
 425   0.0000       3.716926       101.1427 
 426   0.0000       3.726204       101.3952 
 427   0.0000       3.729153       101.4754 
 428   0.0000       3.749507       102.0293 
 429   0.0000       3.759392       102.2983 
 430   0.0000       3.785055       102.9966 
 431   0.0000       3.800818       103.4255 
 432   0.0000       3.830712       104.2390 
 433   0.0000       3.833073       104.3032 
 434   0.0000       3.856597       104.9433 
 435   0.0000       3.866683       105.2178 
 436   0.0000       3.878753       105.5462 
 437   0.0000       3.890421       105.8637 
 438   0.0000       3.915168       106.5371 
 439   0.0000       3.920113       106.6717 
 440   0.0000       3.927197       106.8645 
 441   0.0000       3.941282       107.2477 
 442   0.0000       3.958683       107.7213 
 443   0.0000       3.995620       108.7263 
 444   0.0000       4.002006       108.9001 
 445   0.0000       4.019751       109.3830 
 446   0.0000       4.056255       110.3763 
 447   0.0000       4.064182       110.5920 
 448   0.0000       4.090353       111.3042 
 449   0.0000       4.098684       111.5309 
 450   0.0000       4.137373       112.5837 
 451   0.0000       4.196358       114.1887 
 452   0.0000       4.219478       114.8178 
 453   0.0000       4.237963       115.3208 
 454   0.0000       4.252161       115.7072 
 455   0.0000       4.266735       116.1038 
 456   0.0000       4.275939       116.3542 
 457   0.0000       4.318369       117.5088 
 458   0.0000       4.335397       117.9722 
 459   0.0000       4.394390       119.5774 
 460   0.0000       4.410489       120.0155 
 461   0.0000       4.445105       120.9574 
 462   0.0000       4.465599       121.5151 
 463   0.0000       4.479197       121.8851 
 464   0.0000       4.519677       122.9867 
 465   0.0000       4.532353       123.3316 
 466   0.0000       4.578260       124.5808 
 467   0.0000       4.590369       124.9103 
 468   0.0000       4.595603       125.0527 
 469   0.0000       4.622270       125.7784 
 470   0.0000       4.624868       125.8490 
 471   0.0000       4.652110       126.5903 
 472   0.0000       4.659951       126.8037 
 473   0.0000       4.693902       127.7276 
 474   0.0000       4.702859       127.9713 
 475   0.0000       4.727587       128.6442 
 476   0.0000       4.749211       129.2326 
 477   0.0000       4.763600       129.6241 
 478   0.0000       4.770116       129.8015 
 479   0.0000       4.795317       130.4872 
 480   0.0000       4.811669       130.9322 
 481   0.0000       4.831534       131.4727 
 482   0.0000       4.835219       131.5730 
 483   0.0000       4.847236       131.9000 
 484   0.0000       4.863867       132.3526 
 485   0.0000       4.881060       132.8204 
 486   0.0000       4.894370       133.1826 
 487   0.0000       4.954017       134.8057 
 488   0.0000       4.960880       134.9924 
 489   0.0000       5.040421       137.1568 
 490   0.0000       5.054813       137.5484 
 491   0.0000       5.066979       137.8795 
 492   0.0000       5.095469       138.6548 
 493   0.0000       5.116027       139.2142 
 494   0.0000       5.133574       139.6917 
 495   0.0000       5.150076       140.1407 
 496   0.0000       5.167282       140.6089 
 497   0.0000       5.190176       141.2319 
 498   0.0000       5.207011       141.6900 
 499   0.0000       5.221085       142.0729 
 500   0.0000       5.251494       142.9004 
 501   0.0000       5.282593       143.7467 
 502   0.0000       5.285369       143.8222 
 503   0.0000       5.299110       144.1961 
 504   0.0000       5.306812       144.4057 
 505   0.0000       5.324604       144.8898 
 506   0.0000       5.327059       144.9566 
 507   0.0000       5.347010       145.4996 
 508   0.0000       5.367187       146.0486 
 509   0.0000       5.409525       147.2007 
 510   0.0000       5.461143       148.6052 
 511   0.0000       5.490105       149.3934 
 512   0.0000       5.516492       150.1114 
 513   0.0000       5.535140       150.6188 
 514   0.0000       5.542821       150.8278 
 515   0.0000       5.567796       151.5074 
 516   0.0000       5.600821       152.4061 
 517   0.0000       5.603225       152.4715 
 518   0.0000       5.623068       153.0115 
 519   0.0000       5.678769       154.5272 
 520   0.0000       5.696084       154.9983 
 521   0.0000       5.707480       155.3084 
 522   0.0000       5.799761       157.8195 
 523   0.0000       5.861418       159.4973 
 524   0.0000       5.869905       159.7282 
 525   0.0000       5.956432       162.0828 
 526   0.0000       5.978317       162.6783 
 527   0.0000       6.010899       163.5649 
 528   0.0000       6.105253       166.1324 
 529   0.0000       6.129878       166.8025 
 530   0.0000       6.140572       167.0934 
 531   0.0000       6.323210       172.0633 
 532   0.0000       6.338567       172.4812 
 533   0.0000       6.341336       172.5565 
 534   0.0000       6.433789       175.0723 
 535   0.0000       6.434959       175.1041 
 536   0.0000       6.448175       175.4638 
 537   0.0000       6.569126       178.7550 
 538   0.0000       6.579387       179.0342 
 539   0.0000       6.598926       179.5659 
 540   0.0000       6.738247       183.3570 
 541   0.0000       6.749756       183.6702 
 542   0.0000       6.753511       183.7724 
 543   0.0000       6.835363       185.9997 
 544   0.0000       6.840813       186.1480 
 545   0.0000       6.848522       186.3578 
 546   0.0000       7.077928       192.6002 
 547   0.0000       7.081562       192.6991 
 548   0.0000       7.088815       192.8964 
 549   0.0000       7.107671       193.4096 
 550   0.0000       7.112671       193.5456 
 551   0.0000       7.124636       193.8712 
 552   0.0000      22.702805       617.7747 
 553   0.0000      22.714039       618.0804 
 554   0.0000      22.730455       618.5271 
 555   0.0000      22.812180       620.7510 
 556   0.0000      22.841404       621.5462 
 557   0.0000      22.846866       621.6948 
 558   0.0000      23.497492       639.3993 
 559   0.0000      23.528997       640.2566 
 560   0.0000      23.544927       640.6900 
 561   0.0000      32.409523       881.9080 
 562   0.0000      32.541673       885.5039 
 563   0.0000      32.584788       886.6772 
 564   0.0000      43.894886      1194.4406 
 565   0.0000      43.952887      1196.0189 
 566   0.0000      43.982081      1196.8133 

                    ********************************
                    * MULLIKEN POPULATION ANALYSIS *
                    ********************************

-----------------------
MULLIKEN ATOMIC CHARGES
-----------------------
   0 C :   -0.348469
   1 H :    0.122328
   2 H :    0.137492
   3 H :    0.136446
   4 C :    0.311277
   5 O :   -0.540969
   6 N :   -0.267351
   7 H :    0.248598
   8 C :    0.132275
   9 H :    0.094658
  10 C :   -0.373366
  11 H :    0.127545
  12 H :    0.132978
  13 H :    0.122744
  14 C :    0.290075
  15 O :   -0.523153
  16 N :   -0.252629
  17 H :    0.248543
  18 C :    0.116997
  19 H :    0.099365
  20 C :   -0.364603
  21 H :    0.129045
  22 H :    0.132895
  23 H :    0.122903
  24 C :    0.284536
  25 O :   -0.525665
  26 N :   -0.250841
  27 H :    0.264279
  28 C :   -0.212366
  29 H :    0.138652
  30 H :    0.132642
  31 H :    0.133140
Sum of atomic charges:   -0.0000000

--------------------------------
MULLIKEN REDUCED ORBITAL CHARGES
--------------------------------
  0 C s       :     3.270706  s :     3.270706
      pz      :     1.059726  p :     3.040685
      px      :     0.900192
      py      :     1.080768
      dz2     :     0.003880  d :     0.033697
      dxz     :     0.010208
      dyz     :     0.004691
      dx2y2   :     0.005834
      dxy     :     0.009084
      f0      :     0.000078  f :     0.003381
      f+1     :     0.000490
      f-1     :     0.000446
      f+2     :     0.000948
      f-2     :     0.000225
      f+3     :     0.000556
      f-3     :     0.000638
  1 H s       :     0.852955  s :     0.852955
      pz      :     0.006667  p :     0.024717
      px      :     0.007020
      py      :     0.011030
  2 H s       :     0.837937  s :     0.837937
      pz      :     0.009794  p :     0.024570
      px      :     0.008196
      py      :     0.006581
  3 H s       :     0.839299  s :     0.839299
      pz      :     0.009692  p :     0.024256
      px      :     0.005762
      py      :     0.008801
  4 C s       :     3.065340  s :     3.065340
      pz      :     0.752526  p :     2.358788
      px      :     0.851435
      py      :     0.754826
      dz2     :     0.019350  d :     0.241764
      dxz     :     0.031082
      dyz     :     0.058276
      dx2y2   :     0.071853
      dxy     :     0.061203
      f0      :     0.001976  f :     0.022831
      f+1     :     0.001572
      f-1     :     0.002324
      f+2     :     0.002382
      f-2     :     0.003783
      f+3     :     0.003216
      f-3     :     0.007578
  5 O s       :     3.803747  s :     3.803747
      pz      :     1.506986  p :     4.707283
      px      :     1.673467
      py      :     1.526829
      dz2     :     0.004008  d :     0.028210
      dxz     :     0.002784
      dyz     :     0.006975
      dx2y2   :     0.006987
      dxy     :     0.007456
      f0      :     0.000109  f :     0.001730
      f+1     :     0.000093
      f-1     :     0.000282
      f+2     :     0.000190
      f-2     :     0.000294
      f+3     :     0.000354
      f-3     :     0.000407
  6 N s       :     3.441262  s :     3.441262
      pz      :     1.531739  p :     3.764251
      px      :     1.127492
      py      :     1.105020
      dz2     :     0.004765  d :     0.057382
      dxz     :     0.010219
      dyz     :     0.008963
      dx2y2   :     0.015508
      dxy     :     0.017927
      f0      :     0.000805  f :     0.004456
      f+1     :     0.000519
      f-1     :     0.000401
      f+2     :     0.000560
      f-2     :     0.000471
      f+3     :     0.000673
      f-3     :     0.001026
  7 H s       :     0.712421  s :     0.712421
      pz      :     0.012676  p :     0.038981
      px      :     0.009780
      py      :     0.016525
  8 C s       :     3.094318  s :     3.094318
      pz      :     0.889934  p :     2.626883
      px      :     0.753725
      py      :     0.983223
      dz2     :     0.029534  d :     0.136015
      dxz     :     0.042479
      dyz     :     0.021338
      dx2y2   :     0.022341
      dxy     :     0.020324
      f0      :     0.001647  f :     0.010508
      f+1     :     0.002173
      f-1     :     0.001309
      f+2     :     0.001780
      f-2     :     0.000828
      f+3     :     0.001661
      f-3     :     0.001110
  9 H s       :     0.878372  s :     0.878372
      pz      :     0.005951  p :     0.026971
      px      :     0.006163
      py      :     0.014857
 10 C s       :     3.297070  s :     3.297070
      pz      :     0.904995  p :     3.032963
      px      :     1.072585
      py      :     1.055382
      dz2     :     0.008240  d :     0.039723
      dxz     :     0.010883
      dyz     :     0.010536
      dx2y2   :     0.006262
      dxy     :     0.003802
      f0      :     0.000969  f :     0.003610
      f+1     :     0.000595
      f-1     :     0.000850
      f+2     :     0.000226
      f-2     :     0.000251
      f+3     :     0.000700
      f-3     :     0.000019
 11 H s       :     0.848238  s :     0.848238
      pz      :     0.006619  p :     0.024216
      px      :     0.011725
      py      :     0.005872
 12 H s       :     0.842734  s :     0.842734
      pz      :     0.008522  p :     0.024287
      px      :     0.007456
      py      :     0.008309
 13 H s       :     0.853232  s :     0.853232
      pz      :     0.005688  p :     0.024025
      px      :     0.006856
      py      :     0.011481
 14 C s       :     3.073373  s :     3.073373
      pz      :     0.772508  p :     2.369569
      px      :     0.820527
      py      :     0.776534
      dz2     :     0.029857  d :     0.244107
      dxz     :     0.034626
      dyz     :     0.053456
      dx2y2   :     0.069220
      dxy     :     0.056949
      f0      :     0.001554  f :     0.022877
      f+1     :     0.002675
      f-1     :     0.003002
      f+2     :     0.003913
      f-2     :     0.002566
      f+3     :     0.004461
      f-3     :     0.004706
 15 O s       :     3.811097  s :     3.811097
      pz      :     1.591293  p :     4.681685
      px      :     1.710322
      py      :     1.380069
      dz2     :     0.003767  d :     0.028633
      dxz     :     0.002410
      dyz     :     0.007287
      dx2y2   :     0.007823
      dxy     :     0.007346
      f0      :     0.000138  f :     0.001738
      f+1     :     0.000067
      f-1     :     0.000310
      f+2     :     0.000220
      f-2     :     0.000239
      f+3     :     0.000343
      f-3     :     0.000420
 16 N s       :     3.440922  s :     3.440922
      pz      :     1.371779  p :     3.748828
      px      :     1.183664
      py      :     1.193385
      dz2     :     0.011987  d :     0.058408
      dxz     :     0.011576
      dyz     :     0.006872
      dx2y2   :     0.013982
      dxy     :     0.013992
      f0      :     0.000580  f :     0.004471
      f+1     :     0.000716
      f-1     :     0.000400
      f+2     :     0.000639
      f-2     :     0.000743
      f+3     :     0.000847
      f-3     :     0.000546
 17 H s       :     0.712456  s :     0.712456
      pz      :     0.010735  p :     0.039000
      px      :     0.008992
      py      :     0.019273
 18 C s       :     3.102899  s :     3.102899
      pz      :     0.841997  p :     2.631721
      px      :     0.853346
      py      :     0.936378
      dz2     :     0.040065  d :     0.137752
      dxz     :     0.031858
      dyz     :     0.021331
      dx2y2   :     0.024802
      dxy     :     0.019696
      f0      :     0.001817  f :     0.010632
      f+1     :     0.001863
      f-1     :     0.001829
      f+2     :     0.001346
      f-2     :     0.001329
      f+3     :     0.001232
      f-3     :     0.001216
 19 H s       :     0.873954  s :     0.873954
      pz      :     0.005549  p :     0.026681
      px      :     0.007616
      py      :     0.013516
 20 C s       :     3.291127  s :     3.291127
      pz      :     0.904758  p :     3.030645
      px      :     1.074383
      py      :     1.051504
      dz2     :     0.008500  d :     0.039253
      dxz     :     0.010906
      dyz     :     0.009410
      dx2y2   :     0.008206
      dxy     :     0.002231
      f0      :     0.000862  f :     0.003579
      f+1     :     0.000696
      f-1     :     0.000878
      f+2     :     0.000257
      f-2     :     0.000162
      f+3     :     0.000569
      f-3     :     0.000156
 21 H s       :     0.846657  s :     0.846657
      pz      :     0.009199  p :     0.024298
      px      :     0.007486
      py      :     0.007614
 22 H s       :     0.842885  s :     0.842885
      pz      :     0.006003  p :     0.024220
      px      :     0.012346
      py      :     0.005871
 23 H s       :     0.852946  s :     0.852946
      pz      :     0.005704  p :     0.024151
      px      :     0.006334
      py      :     0.012113
 24 C s       :     3.082687  s :     3.082687
      pz      :     0.765628  p :     2.373553
      px      :     0.845369
      py      :     0.762556
      dz2     :     0.012943  d :     0.236357
      dxz     :     0.024205
      dyz     :     0.062783
      dx2y2   :     0.072302
      dxy     :     0.064125
      f0      :     0.002253  f :     0.022867
      f+1     :     0.001382
      f-1     :     0.001969
      f+2     :     0.001635
      f-2     :     0.003752
      f+3     :     0.003329
      f-3     :     0.008547
 25 O s       :     3.804803  s :     3.804803
      pz      :     1.511933  p :     4.690659
      px      :     1.685519
      py      :     1.493208
      dz2     :     0.003314  d :     0.028470
      dxz     :     0.002628
      dyz     :     0.007101
      dx2y2   :     0.007501
      dxy     :     0.007926
      f0      :     0.000142  f :     0.001734
      f+1     :     0.000075
      f-1     :     0.000222
      f+2     :     0.000154
      f-2     :     0.000288
      f+3     :     0.000392
      f-3     :     0.000461
 26 N s       :     3.431861  s :     3.431861
      pz      :     1.532849  p :     3.755578
      px      :     1.123258
      py      :     1.099470
      dz2     :     0.005144  d :     0.058886
      dxz     :     0.012028
      dyz     :     0.006989
      dx2y2   :     0.015977
      dxy     :     0.018749
      f0      :     0.000801  f :     0.004516
      f+1     :     0.000593
      f-1     :     0.000440
      f+2     :     0.000515
      f-2     :     0.000396
      f+3     :     0.000721
      f-3     :     0.001049
 27 H s       :     0.697516  s :     0.697516
      pz      :     0.011904  p :     0.038205
      px      :     0.009351
      py      :     0.016950
 28 C s       :     3.226182  s :     3.226182
      pz      :     1.062993  p :     2.920206
      px      :     0.750973
      py      :     1.106239
      dz2     :     0.009901  d :     0.059952
      dxz     :     0.021465
      dyz     :     0.003887
      dx2y2   :     0.011390
      dxy     :     0.013310
      f0      :     0.000862  f :     0.006026
      f+1     :     0.000953
      f-1     :     0.000644
      f+2     :     0.001064
      f-2     :     0.000156
      f+3     :     0.001357
      f-3     :     0.000991
 29 H s       :     0.837772  s :     0.837772
      pz      :     0.005821  p :     0.023576
      px      :     0.005894
      py      :     0.011861
 30 H s       :     0.843611  s :     0.843611
      pz      :     0.008517  p :     0.023747
      px      :     0.006949
      py      :     0.008281
 31 H s       :     0.843207  s :     0.843207
[...]
      px      :     1.130454
      py      :     1.179775
      dz2     :     0.017264  d :     0.227580
      dxz     :     0.032665
      dyz     :     0.028215
      dx2y2   :     0.070169
      dxy     :     0.079267
      f0      :     0.001752  f :     0.017094
      f+1     :     0.001832
      f-1     :     0.001532
      f+2     :     0.002246
      f-2     :     0.001604
      f+3     :     0.002649
      f-3     :     0.005479
  7 H s       :     0.689942  s :     0.689942
      pz      :     0.036488  p :     0.109503
      px      :     0.028076
      py      :     0.044939
  8 C s       :     2.716178  s :     2.716178
      pz      :     0.995088  p :     2.890160
      px      :     0.857635
      py      :     1.037437
      dz2     :     0.120980  d :     0.535342
      dxz     :     0.133604
      dyz     :     0.082979
      dx2y2   :     0.108172
      dxy     :     0.089607
      f0      :     0.009082  f :     0.067697
      f+1     :     0.013999
      f-1     :     0.007441
      f+2     :     0.011578
      f-2     :     0.007696
      f+3     :     0.010228
      f-3     :     0.007673
  9 H s       :     0.784398  s :     0.784398
      pz      :     0.019316  p :     0.078748
      px      :     0.018096
      py      :     0.041337
 10 C s       :     2.776966  s :     2.776966
      pz      :     1.002090  p :     3.166362
      px      :     1.083841
      py      :     1.080431
      dz2     :     0.062698  d :     0.249659
      dxz     :     0.055774
      dyz     :     0.058820
      dx2y2   :     0.043049
      dxy     :     0.029318
      f0      :     0.005784  f :     0.027417
      f+1     :     0.004568
      f-1     :     0.005522
      f+2     :     0.002881
      f-2     :     0.003932
      f+3     :     0.004171
      f-3     :     0.000560
 11 H s       :     0.813117  s :     0.813117
      pz      :     0.020341  p :     0.078106
      px      :     0.037466
      py      :     0.020299
 12 H s       :     0.812476  s :     0.812476
      pz      :     0.025565  p :     0.078059
      px      :     0.024834
      py      :     0.027660
 13 H s       :     0.812622  s :     0.812622
      pz      :     0.018053  p :     0.075865
      px      :     0.022699
      py      :     0.035113
 14 C s       :     2.724065  s :     2.724065
      pz      :     0.831000  p :     2.677330
      px      :     0.918354
      py      :     0.927975
      dz2     :     0.112134  d :     0.904496
      dxz     :     0.137138
      dyz     :     0.185417
      dx2y2   :     0.240857
      dxy     :     0.228950
      f0      :     0.009996  f :     0.142688
      f+1     :     0.016622
      f-1     :     0.018497
      f+2     :     0.026539
      f-2     :     0.011690
      f+3     :     0.029345
      f-3     :     0.030000
 15 O s       :     3.397277  s :     3.397277
      pz      :     1.495409  p :     4.547896
      px      :     1.586255
      py      :     1.466232
      dz2     :     0.007767  d :     0.065498
      dxz     :     0.004184
      dyz     :     0.016987
      dx2y2   :     0.018194
      dxy     :     0.018366
      f0      :     0.000550  f :     0.005885
      f+1     :     0.000199
      f-1     :     0.000843
      f+2     :     0.000890
      f-2     :     0.000720
      f+3     :     0.001358
      f-3     :     0.001325
 16 N s       :     2.900007  s :     2.900007
      pz      :     1.258045  p :     3.636874
      px      :     1.207547
      py      :     1.171282
      dz2     :     0.038306  d :     0.228562
      dxz     :     0.046268
      dyz     :     0.027337
      dx2y2   :     0.058082
      dxy     :     0.058570
      f0      :     0.002167  f :     0.017063
      f+1     :     0.002150
      f-1     :     0.001602
      f+2     :     0.003215
      f-2     :     0.001793
      f+3     :     0.003150
      f-3     :     0.002985
 17 H s       :     0.687712  s :     0.687712
      pz      :     0.031039  p :     0.108975
      px      :     0.024749
      py      :     0.053188
 18 C s       :     2.716167  s :     2.716167
      pz      :     0.946576  p :     2.891952
      px      :     0.956835
      py      :     0.988541
      dz2     :     0.142066  d :     0.540252
      dxz     :     0.111276
      dyz     :     0.091121
      dx2y2   :     0.113368
      dxy     :     0.082421
      f0      :     0.009699  f :     0.068580
      f+1     :     0.011626
      f-1     :     0.010854
      f+2     :     0.009981
      f-2     :     0.011229
      f+3     :     0.007749
      f-3     :     0.007443
 19 H s       :     0.781833  s :     0.781833
      pz      :     0.017356  p :     0.076793
      px      :     0.020971
      py      :     0.038466
 20 C s       :     2.777152  s :     2.777152
      pz      :     1.005776  p :     3.166485
      px      :     1.079932
      py      :     1.080777
      dz2     :     0.062409  d :     0.247891
      dxz     :     0.054525
      dyz     :     0.055912
      dx2y2   :     0.055484
      dxy     :     0.019561
      f0      :     0.004680  f :     0.027279
      f+1     :     0.005360
      f-1     :     0.005705
      f+2     :     0.002107
      f-2     :     0.004621
      f+3     :     0.003510
      f-3     :     0.001296
 21 H s       :     0.813007  s :     0.813007
      pz      :     0.027386  p :     0.078588
      px      :     0.025317
      py      :     0.025886
 22 H s       :     0.812156  s :     0.812156
      pz      :     0.019024  p :     0.077450
      px      :     0.038513
      py      :     0.019913
 23 H s       :     0.812665  s :     0.812665
      pz      :     0.018340  p :     0.076476
      px      :     0.021139
      py      :     0.036998
 24 C s       :     2.727183  s :     2.727183
      pz      :     0.754790  p :     2.685403
      px      :     0.969668
      py      :     0.960946
      dz2     :     0.069008  d :     0.901441
      dxz     :     0.086139
      dyz     :     0.204027
      dx2y2   :     0.289753
      dxy     :     0.252514
      f0      :     0.008757  f :     0.141787
      f+1     :     0.007213
      f-1     :     0.012551
      f+2     :     0.010028
      f-2     :     0.027651
      f+3     :     0.020578
      f-3     :     0.055009
 25 O s       :     3.401411  s :     3.401411
      pz      :     1.426251  p :     4.554024
      px      :     1.596019
      py      :     1.531754
      dz2     :     0.007281  d :     0.064772
      dxz     :     0.004790
      dyz     :     0.012028
      dx2y2   :     0.019270
      dxy     :     0.021402
      f0      :     0.000460  f :     0.005818
      f+1     :     0.000240
      f-1     :     0.000690
      f+2     :     0.000480
      f-2     :     0.000768
      f+3     :     0.001480
      f-3     :     0.001700
 26 N s       :     2.909819  s :     2.909819
      pz      :     1.351073  p :     3.671160
      px      :     1.155064
      py      :     1.165023
      dz2     :     0.017826  d :     0.235373
      dxz     :     0.036405
      dyz     :     0.022756
      dx2y2   :     0.072011
      dxy     :     0.086376
      f0      :     0.001629  f :     0.017209
      f+1     :     0.001933
      f-1     :     0.001670
      f+2     :     0.002153
      f-2     :     0.001529
      f+3     :     0.002659
      f-3     :     0.005636
 27 H s       :     0.687963  s :     0.687963
      pz      :     0.034130  p :     0.107075
      px      :     0.027394
      py      :     0.045550
 28 C s       :     2.780262  s :     2.780262
      pz      :     1.097595  p :     3.097758
      px      :     0.888097
      py      :     1.112066
      dz2     :     0.060196  d :     0.321557
      dxz     :     0.090386
      dyz     :     0.026157
      dx2y2   :     0.077143
      dxy     :     0.067676
      f0      :     0.004771  f :     0.043532
      f+1     :     0.006833
      f-1     :     0.003544
      f+2     :     0.007713
      f-2     :     0.004525
      f+3     :     0.008437
      f-3     :     0.007709
 29 H s       :     0.817595  s :     0.817595
      pz      :     0.020044  p :     0.075869
      px      :     0.017469
      py      :     0.038356
 30 H s       :     0.820893  s :     0.820893
      pz      :     0.028671  p :     0.076581
      px      :     0.020506
      py      :     0.027403
 31 H s       :     0.820264  s :     0.820264
      pz      :     0.038236  p :     0.075839
      px      :     0.014881
      py      :     0.022722


                      *****************************
                      * MAYER POPULATION ANALYSIS *
                      *****************************

  NA   - Mulliken gross atomic population
  ZA   - Total nuclear charge
  QA   - Mulliken gross atomic charge
  VA   - Mayer's total valence
  BVA  - Mayer's bonded valence
  FA   - Mayer's free valence

  ATOM       NA         ZA         QA         VA         BVA        FA
  0 C      6.3485     6.0000    -0.3485     3.8751     3.8751     0.0000
  1 H      0.8777     1.0000     0.1223     0.9749     0.9749     0.0000
  2 H      0.8625     1.0000     0.1375     0.9758     0.9758     0.0000
  3 H      0.8636     1.0000     0.1364     0.9745     0.9745     0.0000
  4 C      5.6887     6.0000     0.3113     4.0943     4.0943    -0.0000
  5 O      8.5410     8.0000    -0.5410     1.9486     1.9486    -0.0000
  6 N      7.2674     7.0000    -0.2674     3.1985     3.1985    -0.0000
  7 H      0.7514     1.0000     0.2486     0.9630     0.9630    -0.0000
  8 C      5.8677     6.0000     0.1323     3.6960     3.6960    -0.0000
  9 H      0.9053     1.0000     0.0947     1.0539     1.0539    -0.0000
 10 C      6.3734     6.0000    -0.3734     3.8689     3.8689     0.0000
 11 H      0.8725     1.0000     0.1275     0.9743     0.9743     0.0000
 12 H      0.8670     1.0000     0.1330     0.9790     0.9790     0.0000
 13 H      0.8773     1.0000     0.1227     0.9877     0.9877     0.0000
 14 C      5.7099     6.0000     0.2901     4.1647     4.1647     0.0000
 15 O      8.5232     8.0000    -0.5232     1.9824     1.9824    -0.0000
 16 N      7.2526     7.0000    -0.2526     3.2395     3.2395    -0.0000
 17 H      0.7515     1.0000     0.2485     0.9657     0.9657    -0.0000
 18 C      5.8830     6.0000     0.1170     3.7052     3.7052    -0.0000
 19 H      0.9006     1.0000     0.0994     1.0445     1.0445    -0.0000
 20 C      6.3646     6.0000    -0.3646     3.8626     3.8626    -0.0000
 21 H      0.8710     1.0000     0.1290     0.9754     0.9754     0.0000
 22 H      0.8671     1.0000     0.1329     0.9789     0.9789     0.0000
 23 H      0.8771     1.0000     0.1229     0.9882     0.9882    -0.0000
 24 C      5.7155     6.0000     0.2845     4.1774     4.1774    -0.0000
 25 O      8.5257     8.0000    -0.5257     1.9878     1.9878     0.0000
 26 N      7.2508     7.0000    -0.2508     3.1920     3.1920     0.0000
 27 H      0.7357     1.0000     0.2643     0.9317     0.9317     0.0000
 28 C      6.2124     6.0000    -0.2124     3.8611     3.8611     0.0000
 29 H      0.8613     1.0000     0.1387     0.9669     0.9669    -0.0000
 30 H      0.8674     1.0000     0.1326     0.9685     0.9685    -0.0000
 31 H      0.8669     1.0000     0.1331     0.9677     0.9677     0.0000

  Mayer bond orders larger than 0.100000
B(  0-C ,  1-H ) :   0.9817 B(  0-C ,  2-H ) :   0.9694 B(  0-C ,  3-H ) :   0.9648 
B(  0-C ,  4-C ) :   0.9337 B(  4-C ,  5-O ) :   1.7973 B(  4-C ,  6-N ) :   1.3575 
B(  6-N ,  7-H ) :   0.8937 B(  6-N ,  8-C ) :   0.8585 B(  8-C ,  9-H ) :   0.9818 
B(  8-C , 10-C ) :   0.9226 B(  8-C , 14-C ) :   0.9439 B( 10-C , 11-H ) :   0.9787 
B( 10-C , 12-H ) :   0.9814 B( 10-C , 13-H ) :   0.9794 B( 14-C , 15-O ) :   1.8066 
B( 14-C , 16-N ) :   1.3678 B( 16-N , 17-H ) :   0.8937 B( 16-N , 18-C ) :   0.8647 
B( 18-C , 19-H ) :   0.9802 B( 18-C , 20-C ) :   0.9178 B( 18-C , 24-C ) :   0.9525 
B( 20-C , 21-H ) :   0.9781 B( 20-C , 22-H ) :   0.9820 B( 20-C , 23-H ) :   0.9787 
B( 24-C , 25-O ) :   1.8374 B( 24-C , 26-N ) :   1.3551 B( 26-N , 27-H ) :   0.9015 
B( 26-N , 28-C ) :   0.8996 B( 28-C , 29-H ) :   0.9662 B( 28-C , 30-H ) :   0.9788 
B( 28-C , 31-H ) :   0.9777 

-------
TIMINGS
-------

Total SCF time: 0 days 0 hours 1 min 36 sec 

Total time                  ....      96.423 sec
Sum of individual times     ....      95.216 sec  ( 98.7%)

Fock matrix formation       ....      91.331 sec  ( 94.7%)
  Split-RI-J                ....       6.224 sec  (  6.8% of F)
  Chain of spheres X        ....      63.453 sec  ( 69.5% of F)
  XC integration            ....       9.057 sec  (  9.9% of F)
    Basis function eval.    ....       2.029 sec  ( 22.4% of XC)
    Density eval.           ....       2.888 sec  ( 31.9% of XC)
    XC-Functional eval.     ....       0.157 sec  (  1.7% of XC)
    XC-Potential eval.      ....       2.707 sec  ( 29.9% of XC)
Diagonalization             ....       0.583 sec  (  0.6%)
Density matrix formation    ....       0.037 sec  (  0.0%)
Population analysis         ....       0.059 sec  (  0.1%)
Initial guess               ....       0.518 sec  (  0.5%)
Orbital Transformation      ....       0.000 sec  (  0.0%)
Orbital Orthonormalization  ....       0.000 sec  (  0.0%)
DIIS solution               ....       0.282 sec  (  0.3%)
SOSCF solution              ....       0.511 sec  (  0.5%)
Grid generation             ....       1.894 sec  (  2.0%)

Maximum memory used throughout the entire SCF-calculation: 117.7 MB

-------------------------   --------------------
FINAL SINGLE POINT ENERGY      -742.985592886484
-------------------------   --------------------



           ************************************************************
           *        Program running with 8 parallel MPI-processes     *
           *              working on a common directory               *
           ************************************************************
------------------------------------------------------------------------------
                         ORCA SCF GRADIENT CALCULATION
------------------------------------------------------------------------------

 ... reading COSX grid (gridx3)
Gradient of the Kohn-Sham DFT energy:
Kohn-Sham wavefunction type      ... RKS
Hartree-Fock exchange scaling    ...    0.200
Number of operators              ...    1
Number of atoms                  ...   32
Basis set dimensions             ...  567
Integral neglect threshold       ... 2.5e-11
Integral primitive cutoff        ... 2.5e-12
SHARK Integral package           ... ON

Nuc. rep. gradient       (SHARK) ... done (  0.0 sec)
HCore & Overlap gradient (SHARK) ... done (  0.3 sec)
RI-J gradient            (SHARK) ... done (  1.5 sec)
COSX-gradient                    ... done ( 14.0 sec)
Exchange-correlation gradient    ... done

------------------
CARTESIAN GRADIENT
------------------

   1   C   :   -0.075712381   -0.005158513    0.005897839
   2   H   :    0.029689323   -0.071778569   -0.025757841
   3   H   :    0.042197364    0.025400096    0.064826964
   4   H   :    0.005092660    0.044375762   -0.047783083
   5   C   :    0.024156619    0.052064005    0.007957251
   6   O   :    0.004345097    0.020061837    0.002883165
   7   N   :   -0.030947207   -0.038254281   -0.011244397
   8   H   :    0.000214867   -0.011271100   -0.002943889
   9   C   :    0.032857036   -0.077160928    0.007190076
  10   H   :   -0.025901011    0.077214191   -0.000181281
  11   C   :    0.000509694    0.014052826   -0.072295823
  12   H   :   -0.077223217   -0.005568882    0.026475644
  13   H   :    0.038197723    0.050515634    0.046515224
  14   H   :    0.028530995   -0.062556420    0.002118537
  15   C   :    0.037100380   -0.029899543    0.005602679
  16   O   :    0.021400158   -0.010072840    0.005012511
  17   N   :   -0.037748094    0.012414449   -0.003926221
  18   H   :   -0.007804631    0.007370706   -0.000892273
  19   C   :   -0.022697343    0.064065635   -0.011040402
  20   H   :    0.029343648   -0.065108717    0.005329570
  21   C   :   -0.018586398   -0.019629252    0.070111349
  22   H   :   -0.041551796   -0.045245560   -0.057238862
  23   H   :    0.074030739   -0.006187208   -0.013436006
  24   H   :   -0.021102969    0.068267670   -0.004790506
  25   C   :    0.001344829    0.045708187    0.002731591
  26   O   :    0.006578087    0.017227500    0.002298842
  27   N   :   -0.005043257   -0.040130702   -0.003863185
  28   H   :   -0.000199601   -0.006229562   -0.000134612
  29   C   :    0.062896212   -0.005564835   -0.013935015
  30   H   :   -0.022789140   -0.070388943   -0.004605343
  31   H   :   -0.040308672    0.044709518   -0.048937877
  32   H   :   -0.010913860    0.026741571    0.067985348

Difference to translation invariance:
           :   -0.0000441485   -0.0000162696   -0.0000700267

Difference to rotation invariance:
           :   -0.0009941902    0.0029159896    0.0001145456

Norm of the cartesian gradient     ...    0.3604002039
RMS gradient                       ...    0.0367831918
MAX gradient                       ...    0.0772232174

-------
TIMINGS
-------

Total SCF gradient time            ...       21.202 sec

One electron gradient       ....       0.330 sec  (  1.6%)
RI-J Coulomb gradient       ....       1.508 sec  (  7.1%)
COSX gradient               ....      14.028 sec  ( 66.2%)
XC gradient                 ....       2.840 sec  ( 13.4%)
CPCM gradient               ....       0.681 sec  (  3.2%)
   A-Matrix (El+Nuc)        ....       0.113 sec  (  0.5%)
   Potential                ....       0.568 sec  (  2.7%)

Maximum memory used throughout the entire SCFGRAD-calculation: 86.6 MB

                            ***************************************
                            *     ORCA property calculations      *
                            ***************************************

                                    ---------------------
                                    Active property flags
                                    ---------------------
   (+) Dipole Moment


------------------------------------------------------------------------------
                       ORCA ELECTRIC PROPERTIES CALCULATION
------------------------------------------------------------------------------

Dipole Moment Calculation                       ... on
Quadrupole Moment Calculation                   ... off
Polarizability Calculation                      ... off
GBWName                                         ... orca.gbw
Electron density                                ... orca.scfp
The origin for moment calculation is the CENTER OF MASS  = ( 8.316190,  3.642788  1.117070)

-------------
DIPOLE MOMENT
-------------
                                X             Y             Z
Electronic contribution:      0.15410      -0.89180      -0.25894
Nuclear contribution   :      0.27282       3.38082       1.01891
                        -----------------------------------------
Total Dipole Moment    :      0.42692       2.48902       0.75997
                        -----------------------------------------
Magnitude (a.u.)       :      2.63724
Magnitude (Debye)      :      6.70333



--------------------
Rotational spectrum 
--------------------
 
Rotational constants in cm-1:     0.047574     0.007755     0.007574 
Rotational constants in MHz :  1426.219067   232.499079   227.049160 

 Dipole components along the rotational axes: 
x,y,z [a.u.] :    -1.451751     0.459941    -2.153115 
x,y,z [Debye]:    -3.690057     1.169078    -5.472783 

 

Timings for individual modules:

Sum of individual times         ...      126.486 sec (=   2.108 min)
GTO integral calculation        ...        5.771 sec (=   0.096 min)   4.6 %
SCF iterations                  ...       98.005 sec (=   1.633 min)  77.5 %
SCF Gradient evaluation         ...       22.710 sec (=   0.379 min)  18.0 %
                             ****ORCA TERMINATED NORMALLY****
TOTAL RUN TIME: 0 days 0 hours 2 minutes 8 seconds 433 msec
