irc                                                                     
FOpt      RHF                                                         STO-3G              
Number of atoms                            I                4
Info1-9                                    I   N=           9
          11          11           0           0           0         110
           2           1           2
Full Title                                 C   N=           1
irc         
Route                                      C   N=           2
# HF/sto-3g irc=calcfc  
Charge                                     I                0
Multiplicity                               I                1
Number of electrons                        I               18
Number of alpha electrons                  I                9
Number of beta electrons                   I                9
Number of basis functions                  I               12
Number of independent functions            I               12
Number of point charges in /Mol/           I                0
Number of translation vectors              I                0
Atomic numbers                             I   N=           4
           8           8           1           1
Nuclear charges                            R   N=           4
  8.00000000E+00  8.00000000E+00  1.00000000E+00  1.00000000E+00
Current cartesian coordinates              R   N=          12
 -1.30684036E+00  2.30753383E-03  2.16159667E-01  1.32359531E+00  4.59400307E-02
 -2.33889911E-02 -1.86559925E+00 -1.15453318E+00 -1.18219672E+00  1.60029947E+00
  3.90575117E-01 -1.87015746E+00
Number of symbols in /Mol/                 I                0
Force Field                                I                0
Atom Types                                 C   N=           4
                                                
Int Atom Types                             I   N=           4
           0           0           0           0
MM charges                                 R   N=           4
  0.00000000E+00  0.00000000E+00  0.00000000E+00  0.00000000E+00
Integer atomic weights                     I   N=           4
          16          16           1           1
Real atomic weights                        R   N=           4
  1.59949146E+01  1.59949146E+01  1.00782504E+00  1.00782504E+00
Atom fragment info                         I   N=           4
           0           0           0           0
Atom residue num                           I   N=           4
           0           0           0           0
Nuclear spins                              I   N=           4
           0           0           1           1
Nuclear ZEff                               R   N=           4
 -5.60000000E+00 -5.60000000E+00 -1.00000000E+00 -1.00000000E+00
Nuclear ZNuc                               R   N=           4
  8.00000000E+00  8.00000000E+00  1.00000000E+00  1.00000000E+00
Nuclear QMom                               R   N=           4
  0.00000000E+00  0.00000000E+00  0.00000000E+00  0.00000000E+00
Nuclear GFac                               R   N=           4
  0.00000000E+00  0.00000000E+00  2.79284600E+00  2.79284600E+00
MicOpt                                     I   N=           4
          -1          -1          -1          -1
Number of residues                         I                0
Number of secondary structures             I                0
Number of contracted shells                I                6
Number of primitive shells                 I               18
Pure/Cartesian d shells                    I                0
Pure/Cartesian f shells                    I                0
Highest angular momentum                   I                1
Largest degree of contraction              I                3
Shell types                                I   N=           6
           0          -1           0          -1           0           0
Number of primitives per shell             I   N=           6
           3           3           3           3           3           3
Shell to atom map                          I   N=           6
           1           1           2           2           3           4
Primitive exponents                        R   N=          18
  1.30709321E+02  2.38088661E+01  6.44360831E+00  5.03315132E+00  1.16959612E+00
  3.80388960E-01  1.30709321E+02  2.38088661E+01  6.44360831E+00  5.03315132E+00
  1.16959612E+00  3.80388960E-01  3.42525091E+00  6.23913730E-01  1.68855404E-01
  3.42525091E+00  6.23913730E-01  1.68855404E-01
Contraction coefficients                   R   N=          18
  1.54328967E-01  5.35328142E-01  4.44634542E-01 -9.99672292E-02  3.99512826E-01
  7.00115469E-01  1.54328967E-01  5.35328142E-01  4.44634542E-01 -9.99672292E-02
  3.99512826E-01  7.00115469E-01  1.54328967E-01  5.35328142E-01  4.44634542E-01
  1.54328967E-01  5.35328142E-01  4.44634542E-01
P(S=P) Contraction coefficients            R   N=          18
  0.00000000E+00  0.00000000E+00  0.00000000E+00  1.55916275E-01  6.07683719E-01
  3.91957393E-01  0.00000000E+00  0.00000000E+00  0.00000000E+00  1.55916275E-01
  6.07683719E-01  3.91957393E-01  0.00000000E+00  0.00000000E+00  0.00000000E+00
  0.00000000E+00  0.00000000E+00  0.00000000E+00
Coordinates of each shell                  R   N=          18
 -1.30684036E+00  2.30753383E-03  2.16159667E-01 -1.30684036E+00  2.30753383E-03
  2.16159667E-01  1.32359531E+00  4.59400307E-02 -2.33889911E-02  1.32359531E+00
  4.59400307E-02 -2.33889911E-02 -1.86559925E+00 -1.15453318E+00 -1.18219672E+00
  1.60029947E+00  3.90575117E-01 -1.87015746E+00
Num ILSW                                   I              100
ILSW                                       I   N=         100
           0           0           0           0           2           0
           0           0           0           0           0          -1
           5           0           0           0           0           0
           0           0           1           0           0           1
           0           1           0           0           0           0
           0           0      100000           0          -1           0
           0           0           0           0           0           0
           0           0           0           1           0           0
           0 -2000000000           1           0           0           0
           0           0           4          52           0           0
           0           0           0           0           0           0
           0           0           0           0           0           1
           0           0           0           0           0           0
           0           0           0           0           0           0
           0           0           0           0           0           0
           0           0           0           0           0           0
           0           0           0           0
Num RLSW                                   I               52
RLSW                                       R   N=          52
  1.00000000E+00  1.00000000E+00  1.00000000E+00  1.00000000E+00  1.00000000E+00
  0.00000000E+00  0.00000000E+00  1.00000000E+00  0.00000000E+00  0.00000000E+00
  0.00000000E+00  0.00000000E+00  1.00000000E+00  0.00000000E+00  0.00000000E+00
  0.00000000E+00  0.00000000E+00  1.00000000E+00  0.00000000E+00  0.00000000E+00
  0.00000000E+00  0.00000000E+00  1.00000000E+00  0.00000000E+00  0.00000000E+00
  0.00000000E+00  0.00000000E+00  1.00000000E+00  0.00000000E+00  0.00000000E+00
  0.00000000E+00  0.00000000E+00  1.00000000E+00  0.00000000E+00  0.00000000E+00
  0.00000000E+00  0.00000000E+00  0.00000000E+00  1.00000000E+00  1.00000000E+00
  0.00000000E+00  1.00000000E+00  0.00000000E+00  0.00000000E+00  0.00000000E+00
  0.00000000E+00  0.00000000E+00  0.00000000E+00  0.00000000E+00  0.00000000E+00
  0.00000000E+00  0.00000000E+00
MxBond                                     I                2
NBond                                      I   N=           4
           2           2           1           1
IBond                                      I   N=           8
           2           3           1           4           1           0
           2           0
RBond                                      R   N=           8
  1.00000000E+00  1.00000000E+00  1.00000000E+00  1.00000000E+00  1.00000000E+00
  0.00000000E+00  1.00000000E+00  0.00000000E+00
Virial Ratio                               R      2.008830052615364E+00
SCF Energy                                 R     -1.487577973967861E+02
Total Energy                               R     -1.487577973967861E+02
RMS Force                                  R      4.581081905925879E-03
RMS Density                                R      1.372422865617587E-09
Job Status                                 I                1
Nuclear derivative order                   I                1
External E-field                           R   N=          35
  0.00000000E+00  0.00000000E+00  0.00000000E+00  0.00000000E+00  0.00000000E+00
  0.00000000E+00  0.00000000E+00  0.00000000E+00  0.00000000E+00  0.00000000E+00
  0.00000000E+00  0.00000000E+00  0.00000000E+00  0.00000000E+00  0.00000000E+00
  0.00000000E+00  0.00000000E+00  0.00000000E+00  0.00000000E+00  0.00000000E+00
  0.00000000E+00  0.00000000E+00  0.00000000E+00  0.00000000E+00  0.00000000E+00
  0.00000000E+00  0.00000000E+00  0.00000000E+00  0.00000000E+00  0.00000000E+00
  0.00000000E+00  0.00000000E+00  0.00000000E+00  0.00000000E+00  0.00000000E+00
IOpCl                                      I                0
IROHF                                      I                0
Alpha Orbital Energies                     R   N=          12
 -2.03250979E+01 -2.03242602E+01 -1.41294088E+00 -1.10761950E+00 -6.50196611E-01
 -5.49998157E-01 -4.85865516E-01 -4.20321128E-01 -3.47705092E-01  4.97849049E-01
  5.37945651E-01  6.50678414E-01
Alpha MO coefficients                      R   N=         144
  7.02858293E-01  1.92241669E-02  2.98434663E-03 -1.34788651E-03 -2.04160969E-03
 -7.02856893E-01 -1.92241369E-02  3.32863232E-03 -3.56483367E-04  1.91948176E-03
 -4.02769772E-03  4.02768959E-03  7.03435069E-01  1.51863293E-02 -1.02727780E-03
 -1.44666101E-03 -1.74993768E-03  7.03436468E-01  1.51863678E-02  6.69712039E-04
  4.17033280E-04 -2.36389283E-03 -4.18769937E-03 -4.18770765E-03 -1.66115976E-01
  5.88113221E-01  9.57616657E-02 -3.14336329E-02 -6.32072679E-02 -1.66115980E-01
  5.88113234E-01 -1.05954415E-01  2.08255756E-03 -5.40634248E-02  8.65767620E-02
  8.65767693E-02 -1.71427986E-01  6.63585076E-01 -1.00557258E-01 -5.88979765E-02
 -5.89399635E-02  1.71427981E-01 -6.63585053E-01 -8.71695104E-02 -2.03465579E-02
  9.50902204E-02  1.73105584E-01 -1.73105589E-01 -3.01267815E-02  1.66729395E-01
  2.85114082E-01  1.54442137E-01  3.62742204E-01 -3.01267886E-02  1.66729430E-01
 -2.15889694E-01  4.48965862E-02  4.33705278E-01 -3.40130155E-01 -3.40130166E-01
 -4.64161508E-02  2.29918840E-01 -6.50255082E-02  5.96319026E-01 -5.27277174E-02
  4.64161512E-02 -2.29918843E-01 -7.97856250E-02  5.53815802E-01 -2.22547128E-01
 -2.19247553E-01  2.19247535E-01 -5.06099817E-02  2.40743027E-01 -5.20795414E-01
  9.48984112E-03  3.71698294E-01 -5.06099818E-02  2.40743027E-01  5.74203904E-01
  1.44305421E-01  2.42782557E-01 -5.16567901E-03 -5.16567881E-03 -5.36936736E-02
  2.75331566E-01 -2.48519787E-03 -1.26701682E-01  5.96855289E-01  5.36936734E-02
 -2.75331566E-01 -9.42468300E-02 -3.90938759E-01 -4.58890109E-01 -3.02629323E-01
  3.02629309E-01  2.15126645E-02 -1.17411912E-01  1.52901147E-01 -6.39855354E-01
  2.97793257E-01  2.15126639E-02 -1.17411909E-01 -1.28384377E-01  7.10453925E-01
 -1.57203653E-02  1.17877920E-01  1.17877912E-01 -9.02994408E-02  5.06461793E-01
  7.14089059E-01 -1.36569368E-01 -2.71019606E-01  9.02994205E-02 -5.06461665E-01
  7.53581656E-01 -2.28464202E-02  1.83354083E-01 -3.41908681E-01  3.41908442E-01
  6.51789147E-02 -4.24659354E-01  1.97813968E-01  3.84003531E-01  4.00850943E-01
  6.51789401E-02 -4.24659495E-01 -1.14299141E-01 -1.43514927E-01  5.60008546E-01
  7.56081895E-01  7.56081863E-01  2.73503602E-02 -2.08173038E-01  4.76030144E-01
  3.36697511E-01  4.07712304E-01 -2.73503769E-02  2.08173156E-01  3.89396528E-01
  8.72270387E-02 -5.89034131E-01  7.32384872E-01 -7.32385061E-01
Orthonormal basis                          R   N=         144
  1.15498303E-01  3.30123934E-01  1.13798391E-01 -7.64438761E-02 -1.49355928E-01
  1.15498308E-01  3.30123948E-01 -1.39559529E-01  2.26200798E-03 -1.47033860E-01
  3.19407551E-01  3.19407572E-01  1.71813513E-01  2.99817750E-01 -1.88644451E-01
 -1.91621597E-01 -1.13576221E-01 -1.71813502E-01 -2.99817729E-01 -1.59742758E-01
 -1.08396147E-01  2.18946689E-01  3.58042662E-01 -3.58042645E-01  1.02254702E-01
  1.45013759E-01  4.67650457E-01  1.43252545E-01  2.49565157E-01  1.02254703E-01
  1.45013761E-01 -4.14687378E-01  9.26009910E-03  3.59791099E-01 -2.02486787E-01
 -2.02486778E-01  3.34972666E-01  1.98992889E-01 -1.03601486E-01  5.20543877E-01
  1.22612368E-02 -3.34972664E-01 -1.98992889E-01 -1.25292613E-01  4.58082023E-01
 -2.37301819E-01 -9.94804377E-02  9.94804346E-02  3.60045120E-01  2.04828464E-01
 -3.70848363E-01  8.75125788E-02  3.62454002E-01  3.60045122E-01  2.04828465E-01
  4.28044165E-01  7.71886278E-02  2.95601036E-01 -1.93388643E-02 -1.93388642E-02
  3.48028086E-01  6.33571158E-02  7.65097642E-02 -2.76916024E-01  5.04734289E-01
 -3.48028086E-01 -6.33571168E-02  4.70297868E-03 -4.83691077E-01 -3.21424577E-01
 -1.67844945E-01  1.67844940E-01 -3.02525211E-01  5.49029245E-02  2.76481434E-02
 -4.95208998E-01  4.23877437E-01 -3.02525213E-01  5.49029240E-02  2.14607091E-02
  6.36623007E-01  1.41134812E-01  1.22486072E-01  1.22486069E-01  4.44233220E-01
 -2.09676275E-01  3.62231123E-01 -1.33810974E-01 -4.26113494E-01 -4.44233197E-01
  2.09676264E-01  4.31771045E-01  6.64364463E-02  3.73964463E-01 -5.35275253E-02
  5.35275169E-02  4.98927495E-01 -2.50831088E-01  1.20303714E-01 -4.66374555E-01
 -1.25332467E-01  4.98927520E-01 -2.50831099E-01 -1.57923114E-01  3.58045674E-01
 -3.07489898E-01 -1.34251462E-01 -1.34251460E-01 -1.71784530E-01  3.41812249E-01
  7.47119896E-01  1.91223699E-01  1.83753179E-01  1.71784543E-01 -3.41812276E-01
  6.98950958E-01  5.25162970E-02 -3.70444922E-01  3.50478175E-01 -3.50478140E-01
  1.91619323E-01 -6.22967884E-01  1.99462684E-01  2.91625800E-01  3.34303638E-01
  1.91619227E-01 -6.22967595E-01 -1.30489861E-01 -9.30111370E-02  4.59250612E-01
  7.29630792E-01  7.29630560E-01 -2.18249050E-01  7.58235748E-01  9.64876319E-02
 -2.61338388E-01 -3.45008554E-01  2.18249117E-01 -7.58235999E-01  1.61789815E-01
 -7.32939203E-02  4.06313568E-01 -7.28671247E-01  7.28671540E-01
Total SCF Density                          R   N=          78
  2.10956401E+00 -4.64891935E-01  2.03006821E+00  5.38291926E-02 -2.43592096E-01
  7.98846355E-01 -5.28409780E-02  2.95526137E-01 -1.88588758E-01  1.61893591E+00
 -6.99914831E-02  3.81717114E-01 -8.56157407E-02 -4.65192239E-01  1.44983022E+00
 -4.17126496E-03  3.79109432E-02 -3.61211030E-02 -5.93551874E-03  1.37322553E-02
  2.10956401E+00  3.79109430E-02 -2.47471196E-01  8.56309919E-02  4.30850345E-02
 -7.05191719E-02 -4.64891933E-01  2.03006820E+00  3.76003865E-02 -9.41249616E-02
 -7.52350693E-01  5.41535990E-02  1.13336781E-01 -6.65861999E-02  3.14169983E-01
  8.53771266E-01  1.01952697E-02 -6.75443106E-02  2.69592101E-02 -1.30736207E-01
  4.00492697E-02  1.61058592E-02 -9.22898302E-02 -4.76658484E-02  1.97509643E+00
  3.28735425E-03 -2.72065752E-02 -8.61521541E-03  1.75556199E-03 -4.29202598E-02
 -7.67817557E-02  4.30302893E-01  2.12483076E-01  1.94873850E-01  1.03874480E+00
 -2.07267257E-02 -7.97598417E-02 -1.40754389E-01 -4.66615229E-01 -5.49842883E-01
  3.59379288E-03 -4.00107279E-03  1.54132972E-01  1.22550746E-01  9.76504637E-02
  6.13518491E-01  3.59379335E-03 -4.00107649E-03 -1.31113331E-01 -5.62633080E-02
  1.67197501E-01 -2.07267276E-02 -7.97598423E-02  3.04860965E-02  1.49086302E-01
 -7.18827260E-01 -6.50245368E-02  6.13518476E-01
Mulliken Charges                           R   N=           4
 -1.76367228E-01 -1.76367240E-01  1.76367228E-01  1.76367240E-01
IRC MaxStp                                 I             2500
IRC Job offset                             I                0
IRC Num results per geometry               I                2
IRC Num geometry variables                 I               12
IRC point       1 Results for each geome   R   N=          42
 -1.48750432E+02  0.00000000E+00 -1.48750528E+02  1.05689581E-01 -1.48750817E+02
  2.11360139E-01 -1.48751291E+02  3.17039046E-01 -1.48751930E+02  4.22722403E-01
 -1.48752713E+02  5.28408712E-01 -1.48753613E+02  6.34097116E-01 -1.48754599E+02
  7.39787005E-01 -1.48755641E+02  8.45477821E-01 -1.48756707E+02  9.51169079E-01
 -1.48757769E+02  1.05686037E+00 -1.48750534E+02 -1.05685976E-01 -1.48750830E+02
 -2.11356805E-01 -1.48751309E+02 -3.17035955E-01 -1.48751953E+02 -4.22719423E-01
 -1.48752741E+02 -5.28405813E-01 -1.48753643E+02 -6.34094276E-01 -1.48754632E+02
 -7.39784204E-01 -1.48755675E+02 -8.45475042E-01 -1.48756742E+02 -9.51166307E-01
 -1.48757803E+02 -1.05685760E+00
IRC point       1 Geometries               R   N=         252
 -1.31002979E+00 -5.11882759E-02  2.38723251E-01  1.32823008E+00  1.03597301E-01
 -2.93249512E-02 -1.94749866E+00 -5.22905491E-01 -1.47814774E+00  1.65864680E+00
 -3.08863771E-01 -1.84515523E+00 -1.30946164E+00 -5.70627837E-02  2.40055610E-01
  1.32764740E+00  1.09430164E-01 -3.08231502E-02 -1.95295730E+00 -4.54364507E-01
 -1.49342091E+00  1.66433605E+00 -3.76743941E-01 -1.82725054E+00 -1.30873293E+00
 -6.28934120E-02  2.41182807E-01  1.32687504E+00  1.15134956E-01 -3.24525900E-02
 -1.95763281E+00 -3.85152889E-01 -1.50605811E+00  1.66970642E+00 -4.43952199E-01
 -1.80661754E+00 -1.30781912E+00 -6.86429885E-02  2.42092624E-01  1.32588817E+00
  1.20674185E-01 -3.42029698E-02 -1.96164239E+00 -3.15331085E-01 -1.51597925E+00
  1.67488640E+00 -5.10404112E-01 -1.78323042E+00 -1.30673722E+00 -7.43757663E-02
  2.42804599E-01  1.32470414E+00  1.26112839E-01 -3.60900673E-02 -1.96501288E+00
 -2.45114246E-01 -1.52313249E+00  1.67990197E+00 -5.75883615E-01 -1.75715012E+00
 -1.30550142E+00 -8.00864098E-02  2.43317993E-01  1.32333701E+00  1.31445344E-01
 -3.81143492E-02 -1.96780733E+00 -1.74623946E-01 -1.52746210E+00  1.68481940E+00
 -6.40260775E-01 -1.72839501E+00 -1.30412815E+00 -8.57630185E-02  2.43630445E-01
  1.32180311E+00  1.36659392E-01 -4.02749609E-02 -1.97010417E+00 -1.03974089E-01
 -1.52890502E+00  1.68972161E+00 -7.03408252E-01 -1.69697649E+00 -1.30263746E+00
 -9.13907395E-02  2.43739614E-01  1.32012241E+00  1.41739972E-01 -4.25702519E-02
 -1.97200007E+00 -3.32787270E-02 -1.52739702E+00  1.69470973E+00 -7.65199450E-01
 -1.66290770E+00 -1.30105435E+00 -9.69520822E-02  2.43643648E-01  1.31831997E+00
  1.46669750E-01 -4.49977075E-02 -1.97360774E+00  3.73476699E-02 -1.52287456E+00
  1.69990052E+00 -8.25508031E-01 -1.62620537E+00 -1.29940912E+00 -1.02426368E-01
  2.43341458E-01  1.31642634E+00  1.51428733E-01 -4.75535258E-02 -1.97505106E+00
  1.07790020E-01 -1.51527712E+00  1.70542127E+00 -8.84209205E-01 -1.58689079E+00
 -1.29773775E+00 -1.07789355E-01  2.42833188E-01  1.31447798E+00  1.55994117E-01
 -5.02320861E-02 -1.97645761E+00  1.77932905E-01 -1.50455107E+00  1.71140177E+00
 -9.41181102E-01 -1.54499214E+00 -1.31043227E+00 -4.53455813E-02  2.37201721E-01
  1.32861711E+00  9.77105693E-02 -2.79798055E-02 -1.94154211E+00 -5.90746873E-01
 -1.46018918E+00  1.65293546E+00 -2.40323370E-01 -1.86031398E+00 -1.31066494E+00
 -3.96086025E-02  2.35511317E-01  1.32880513E+00  9.18451967E-02 -2.68028975E-02
 -1.93483165E+00 -6.57847866E-01 -1.43960202E+00  1.64693622E+00 -1.71177495E-01
 -1.87272280E+00 -1.31069141E+00 -3.40129337E-02  2.33657604E-01  1.32875762E+00
  8.60364452E-02 -2.58004319E-02 -1.92746390E+00 -7.24137238E-01 -1.41635103E+00
  1.64075418E+00 -1.01473219E-01 -1.88233123E+00 -1.31054290E+00 -2.84964460E-02
  2.31629471E-01  1.32850604E+00  8.02231723E-02 -2.49581254E-02 -1.91951011E+00
 -7.89407284E-01 -1.39048393E+00  1.63446084E+00 -3.14220141E-02 -1.88909471E+00
 -1.31023176E+00 -2.30667908E-02  2.29429227E-01  1.32806265E+00  7.44126572E-02
 -2.42795461E-02 -1.91105539E+00 -8.53536262E-01 -1.36200286E+00  1.62814456E+00
  3.88650256E-02 -1.89297209E+00 -1.30977244E+00 -1.77377928E-02  2.27060793E-01
  1.32744175E+00  6.86183792E-02 -2.37701050E-02 -1.90219793E+00 -9.16407523E-01
 -1.33090083E+00  1.62190812E+00  1.09283756E-01 -1.89391862E+00 -1.30918246E+00
 -1.25266715E-02  2.24529657E-01  1.32666082E+00  6.28573836E-02 -2.34359348E-02
 -1.89305403E+00 -9.77906952E-01 -1.29716903E+00  1.61587218E+00  1.79733010E-01
 -1.89189220E+00 -1.30848384E+00 -7.45353569E-03  2.21843146E-01  1.32574193E+00
  5.71499648E-02 -2.32836506E-02 -1.88375570E+00 -1.03792290E+00 -1.26079894E+00
  1.61017286E+00  2.50112718E-01 -1.88685461E+00 -1.30770337E+00 -2.54178839E-03
  2.19010943E-01  1.32471213E+00  5.15202208E-02 -2.33201382E-02 -1.87444579E+00
 -1.09634636E+00 -1.22178464E+00  1.60495635E+00  3.20323677E-01 -1.87877295E+00
 -1.30687295E+00  2.18170119E-03  2.16045692E-01  1.32360380E+00  4.59964957E-02
 -2.35521614E-02 -1.86527030E+00 -1.15307179E+00 -1.18012651E+00  1.60037084E+00
  3.90266518E-01 -1.86762189E+00
IRC point       1 Gradient at each geome   R   N=         252
  1.78006106E-05 -3.20927212E-05 -2.00352714E-05 -2.20016000E-05  2.01622279E-05
 -2.76081258E-05  1.53865103E-05  2.67300228E-05  1.82494927E-05 -1.11855209E-05
 -1.47995295E-05  2.93939045E-05 -1.75814035E-04  1.59859864E-03 -3.58096136E-04
  1.80152586E-04 -1.58603302E-03  4.08030281E-04  9.29144059E-05 -1.18358416E-03
  2.61441101E-04 -9.72508734E-05  1.17102451E-03 -3.11351291E-04 -4.77515835E-04
  3.10805021E-03 -5.74520067E-04  5.03807344E-04 -3.03235922E-03  8.77014614E-04
  1.59589895E-04 -2.36922719E-03  4.15758619E-04 -1.86121723E-04  2.29284084E-03
 -7.21019768E-04 -8.29120566E-04  4.54117937E-03 -6.73646413E-04  8.92609164E-04
 -4.35834139E-03  1.40411412E-03  1.97011195E-04 -3.49810622E-03  4.61462440E-04
 -2.61483731E-04  3.31243194E-03 -1.20325244E-03 -1.21607058E-03  5.80300520E-03
 -6.52417559E-04  1.32884391E-03 -5.47828164E-03  1.94989734E-03  2.09974084E-04
 -4.50555014E-03  4.01727390E-04 -3.24924577E-04  4.17455406E-03 -1.72425790E-03
 -1.60664501E-03  6.84051531E-03 -5.23829981E-04  1.77696836E-03 -6.35005475E-03
  2.48345688E-03  2.04771800E-04 -5.35298119E-03  2.49879769E-04 -3.78910488E-04
  4.85153106E-03 -2.25340509E-03 -1.96698123E-03  7.61684392E-03 -3.08250011E-04
  2.19879602E-03 -6.94932924E-03  2.97533841E-03  1.89060555E-04 -6.01219740E-03
  2.47551536E-05 -4.26789077E-04  5.32765066E-03 -2.75988459E-03 -2.26295260E-03
  8.11073778E-03 -3.10497446E-05  2.55569267E-03 -7.26777380E-03  3.39911312E-03
  1.70447144E-04 -6.46620874E-03 -2.51030077E-04 -4.71690948E-04  5.59875468E-03
 -3.21487316E-03 -2.46527664E-03  8.31618344E-03  2.80046052E-04  2.81404508E-03
 -7.31189333E-03  3.73262723E-03  1.55206042E-04 -6.70973773E-03 -5.53029528E-04
 -5.15620530E-04  5.67190902E-03 -3.59363686E-03 -2.55284665E-03  8.24263851E-03
  5.96644098E-04  2.94881352E-03 -7.10242670E-03  3.95907286E-03  1.47417016E-04
 -6.74883436E-03 -8.56388227E-04 -5.58804943E-04  5.56421358E-03 -3.87675453E-03
 -2.51543018E-03  7.91352672E-03  8.91830072E-04  2.94649450E-03 -6.67226525E-03
  4.06767607E-03  1.48318653E-04 -6.59969419E-03 -1.13759460E-03 -5.99308888E-04
  5.30105162E-03 -4.05116712E-03  9.48315621E-05 -1.64384912E-03  4.32631972E-04
 -9.00099490E-05  1.65757454E-03 -3.77539455E-04 -1.06294261E-04  1.20871932E-03
 -3.22764933E-04  1.01470614E-04 -1.22245056E-03  2.67649034E-04  3.39536437E-05
 -3.10821521E-03  9.42893585E-04 -6.68292402E-06  3.18676424E-03 -6.29120713E-04
 -2.33467413E-04  2.32500462E-03 -7.31161480E-04  2.05930675E-04 -2.40431572E-03
  4.14332851E-04 -8.65560640E-05 -4.45863886E-03  1.52299606E-03  1.51455119E-04
  4.64550984E-03 -7.76312747E-04 -3.75297417E-04  3.33616940E-03 -1.20821983E-03
  3.09374386E-04 -3.52598551E-03  4.49759898E-04 -2.73665953E-04 -5.60757176E-03
  2.13228539E-03  3.88179818E-04  5.93734074E-03 -8.14758166E-04 -5.17755891E-04
  4.18798898E-03 -1.72193553E-03  4.01010284E-04 -4.52418077E-03  3.78736020E-04
 -5.02611614E-04 -6.51060681E-03  2.73372740E-03  6.74874731E-04  7.00665997E-03
 -7.51777462E-04 -6.49213336E-04  4.85412302E-03 -2.24293154E-03  4.73066407E-04
 -5.36135653E-03  2.16301508E-04 -7.44885046E-04 -7.13978274E-03  3.29114481E-03
  9.78690460E-04  7.81306280E-03 -6.01131968E-04 -7.58453968E-04  5.32001223E-03
 -2.74193617E-03  5.18651828E-04 -6.01055703E-03 -1.70665810E-05 -9.69195311E-04
 -7.48319848E-03  3.77112436E-03  1.26383645E-03  8.33165596E-03 -3.81176054E-04
 -8.36258675E-04  5.58263511E-03 -3.19147975E-03  5.33014834E-04 -6.45586164E-03
 -2.97441118E-04 -1.14665848E-03 -7.54415510E-03  4.14535113E-03  1.49710173E-03
  8.55330752E-03 -1.13383200E-04 -8.76656926E-04  5.64983725E-03 -3.56779045E-03
  5.14450617E-04 -6.69285932E-03 -5.99510999E-04 -1.25411822E-03 -7.34103927E-03
  4.39233189E-03  1.65141939E-03  8.48511885E-03  1.78752730E-04 -8.77651240E-04
  5.53917271E-03 -3.85185223E-03  4.64791354E-04 -6.72805203E-03 -8.98236224E-04
 -1.27710420E-03 -6.90543903E-03  4.49870405E-03  1.70906749E-03  8.14934138E-03
  4.71178235E-04 -8.41588913E-04  5.27596609E-03 -4.03038775E-03  3.89538419E-04
 -6.57770842E-03 -1.17060000E-03
IRC Number of geometries                   I   N=           1
          21
ONIOM Charges                              I   N=          16
           0           0           0           0           0           0
           0           0           0           0           0           0
           0           0           0           0
ONIOM Multiplicities                       I   N=          16
           1           0           0           0           0           0
           0           0           0           0           0           0
           0           0           0           0
Atom Layers                                I   N=           4
           1           1           1           1
Atom Modifiers                             I   N=           4
           0           0           0           0
Force Field                                I                0
Atom Modified Types                        C   N=           4
                                                
Int Atom Modified Types                    I   N=           4
           0           0           0           0
Link Atoms                                 I   N=           4
           0           0           0           0
Atom Modified MM Charges                   R   N=           4
  0.00000000E+00  0.00000000E+00  0.00000000E+00  0.00000000E+00
Link Distances                             R   N=          16
  0.00000000E+00  0.00000000E+00  0.00000000E+00  0.00000000E+00  0.00000000E+00
  0.00000000E+00  0.00000000E+00  0.00000000E+00  0.00000000E+00  0.00000000E+00
  0.00000000E+00  0.00000000E+00  0.00000000E+00  0.00000000E+00  0.00000000E+00
  0.00000000E+00
Cartesian Gradient                         R   N=          12
 -5.80293518E-04 -6.41416324E-03  6.05526586E-03  1.29490778E-03  8.47195632E-03
  2.16648239E-03 -1.27376319E-03  4.19963319E-03 -5.33985562E-03  5.59148935E-04
 -6.25742627E-03 -2.88189264E-03
Cartesian Force Constants                  R   N=          78
  7.67507141E-01  8.18399039E-02  3.30267125E-02  6.79735239E-02  1.68999948E-01
  6.55305889E-01 -6.14060271E-01 -6.26337574E-02 -4.21263680E-02  7.37234264E-01
 -1.64549120E-02  4.93508866E-03 -3.56437263E-02  3.72945213E-02  2.75040789E-02
  1.47880817E-01 -1.98022394E-02 -1.17220991E-01 -1.04617849E-01  1.62443977E-01
  6.91098264E-01 -1.15079391E-01 -3.31622429E-02 -9.28543693E-02 -4.44354487E-02
 -1.70096958E-02 -5.83321031E-02  1.55899221E-01 -5.73118693E-02 -2.82978935E-02
 -1.41409504E-01  5.06735188E-03 -1.06761590E-02 -6.45491915E-04  5.14247036E-02
  3.08374414E-02 -1.92116799E-01 -1.49690176E-01 -5.37347503E-01  3.24008755E-02
  6.91949113E-03  6.34298216E-03  1.54799430E-01  1.41804771E-01  5.20722411E-01
 -3.83674788E-02  1.39560965E-02  6.70072134E-02 -7.87385442E-02 -3.82991350E-03
  1.50691353E-02  3.61561870E-03  8.19813793E-04  4.91649328E-03  1.13490404E-01
 -8.07312259E-03 -9.66390764E-03  8.05328182E-03  2.02718842E-02 -2.17630086E-02
 -1.41996245E-01 -1.25276485E-03  8.13661108E-03  9.65913398E-04 -1.09459967E-02
  2.32903051E-02 -2.37375419E-02  4.92467224E-04 -7.37395336E-04  1.14343341E-01
 -1.33719741E-01 -5.80220255E-01 -3.61295748E-03  2.50224204E-04  1.02821100E-02
 -8.69928420E-02  1.32977050E-01  5.70675541E-01
Nonadiabatic coupling                      R   N=          12
  0.00000000E+00  0.00000000E+00  0.00000000E+00  0.00000000E+00  0.00000000E+00
  0.00000000E+00  0.00000000E+00  0.00000000E+00  0.00000000E+00  0.00000000E+00
  0.00000000E+00  0.00000000E+00
Dipole Moment                              R   N=           3
 -8.11400608E-02 -2.33651169E-01 -9.33540994E-01
Dipole Derivatives                         R   N=          36
 -3.54451027E-01 -9.07493913E-02 -1.14770268E-01 -2.37833560E-01 -3.95859202E-01
 -2.14950376E-01 -2.97510940E-01 -2.46622328E-01 -4.30661676E-01 -2.80386852E-01
 -1.44942594E-03  9.28622039E-02 -4.89084284E-02 -2.08829972E-01  1.02791062E-01
  3.24294078E-01  1.17554012E-01 -6.91755098E-01  3.49923971E-01  7.68901281E-02
  6.58234047E-02  2.34863593E-01  3.84936548E-01  1.89816997E-01  2.95715493E-01
  2.31981643E-01  4.46111385E-01  2.84913908E-01  1.53086892E-02 -4.39153409E-02
  5.18783959E-02  2.19752626E-01 -7.76576843E-02 -3.22498631E-01 -1.02913327E-01
  6.76305389E-01
Polarizability                             R   N=           6
  0.00000000E+00  0.00000000E+00  0.00000000E+00  0.00000000E+00  0.00000000E+00
  0.00000000E+00
Quadrupole Moment                          R   N=           6
 -4.33604309E-01 -3.14445913E-01  7.48050222E-01  7.74955653E-01 -8.73500952E-02