tsopt                                                                   
Freq      RHF                                                         STO-3G              
Number of atoms                            I                4
Info1-9                                    I   N=           9
          11          11           0           0           1         100
           6           1           2
Full Title                                 C   N=           1
tsopt       
Route                                      C   N=           4
# HF/sto-3g opt=(ts,modredundant,calcall)       
Charge                                     I                0
Multiplicity                               I                1
Number of electrons                        I               18
Number of alpha electrons                  I                9
Number of beta electrons                   I                9
Number of basis functions                  I               12
Number of independent functions            I               12
Number of point charges in /Mol/           I                0
Number of translation vectors              I                0
Atomic numbers                             I   N=           4
           8           8           1           1
Nuclear charges                            R   N=           4
  8.00000000E+00  8.00000000E+00  1.00000000E+00  1.00000000E+00
Current cartesian coordinates              R   N=          12
 -4.16333634E-17  1.32817797E+00 -2.03032813E-01 -1.05818132E-16 -1.32817797E+00
 -2.03032813E-01  1.26945011E-03  1.81554334E+00  1.62426250E+00 -1.26945011E-03
 -1.81554334E+00  1.62426250E+00
Number of symbols in /Mol/                 I                0
Force Field                                I                0
Atom Types                                 C   N=           4
                                                
Int Atom Types                             I   N=           4
           0           0           0           0
MM charges                                 R   N=           4
  0.00000000E+00  0.00000000E+00  0.00000000E+00  0.00000000E+00
Integer atomic weights                     I   N=           4
          16          16           1           1
Real atomic weights                        R   N=           4
  1.59949146E+01  1.59949146E+01  1.00782504E+00  1.00782504E+00
Atom fragment info                         I   N=           4
           0           0           0           0
Atom residue num                           I   N=           4
           0           0           0           0
Nuclear spins                              I   N=           4
           0           0           1           1
Nuclear ZEff                               R   N=           4
 -5.60000000E+00 -5.60000000E+00 -1.00000000E+00 -1.00000000E+00
Nuclear ZNuc                               R   N=           4
  8.00000000E+00  8.00000000E+00  1.00000000E+00  1.00000000E+00
Nuclear QMom                               R   N=           4
  0.00000000E+00  0.00000000E+00  0.00000000E+00  0.00000000E+00
Nuclear GFac                               R   N=           4
  0.00000000E+00  0.00000000E+00  2.79284600E+00  2.79284600E+00
MicOpt                                     I   N=           4
          -1          -1          -1          -2
Number of residues                         I                0
Number of secondary structures             I                0
Redundant internal dimensions              I   N=           4
           6           3           2           1
Redundant internal coordinate indices      I   N=          24
           1           2           0           0           1           3
           0           0           2           4           0           0
           2           1           3           0           1           2
           4           0           3           1           2           4
Redundant internal coordinates             R   N=           6
  2.65635594E+00  1.89117286E+00  1.89117286E+00  1.83144291E+00  1.83144291E+00
  1.38943049E-03
ZRed-IntVec                                I   N=           6
           0           0           0           0           0           0
ZRed-FPVec                                 R   N=           6
  0.00000000E+00  0.00000000E+00  0.00000000E+00  0.00000000E+00  0.00000000E+00
  0.00000000E+00
ZRed-Constraint1                           R   N=           6
  2.74635514E+00  1.84468231E+00  1.84468171E+00  1.68550230E+00  1.68550213E+00
  2.62849178E-01
ZRed-Constraint2                           R   N=           6
  0.00000000E+00  0.00000000E+00  0.00000000E+00  0.00000000E+00  0.00000000E+00
  0.00000000E+00
SymInf integers                            I   N=          26
           2           2           1           1           1          -1
          -1           1           0           0           0           0
           0           0           0           0           0           0
           0           0           0           0           0           0
           0           0
RotTr to input orientation                 R   N=          12
  8.07397454E-02 -9.68540932E-01  2.35392345E-01 -9.93187820E-01 -5.82696661E-02
  1.00908868E-01 -8.40181354E-02 -2.41936166E-01 -9.66647735E-01  3.24748931E+00
 -1.02289088E-01 -3.19923888E-01
Number of contracted shells                I                6
Number of primitive shells                 I               18
Pure/Cartesian d shells                    I                0
Pure/Cartesian f shells                    I                0
Highest angular momentum                   I                1
Largest degree of contraction              I                3
Shell types                                I   N=           6
           0          -1           0          -1           0           0
Number of primitives per shell             I   N=           6
           3           3           3           3           3           3
Shell to atom map                          I   N=           6
           1           1           2           2           3           4
Primitive exponents                        R   N=          18
  1.30709321E+02  2.38088661E+01  6.44360831E+00  5.03315132E+00  1.16959612E+00
  3.80388960E-01  1.30709321E+02  2.38088661E+01  6.44360831E+00  5.03315132E+00
  1.16959612E+00  3.80388960E-01  3.42525091E+00  6.23913730E-01  1.68855404E-01
  3.42525091E+00  6.23913730E-01  1.68855404E-01
Contraction coefficients                   R   N=          18
  1.54328967E-01  5.35328142E-01  4.44634542E-01 -9.99672292E-02  3.99512826E-01
  7.00115469E-01  1.54328967E-01  5.35328142E-01  4.44634542E-01 -9.99672292E-02
  3.99512826E-01  7.00115469E-01  1.54328967E-01  5.35328142E-01  4.44634542E-01
  1.54328967E-01  5.35328142E-01  4.44634542E-01
P(S=P) Contraction coefficients            R   N=          18
  0.00000000E+00  0.00000000E+00  0.00000000E+00  1.55916275E-01  6.07683719E-01
  3.91957393E-01  0.00000000E+00  0.00000000E+00  0.00000000E+00  1.55916275E-01
  6.07683719E-01  3.91957393E-01  0.00000000E+00  0.00000000E+00  0.00000000E+00
  0.00000000E+00  0.00000000E+00  0.00000000E+00
Coordinates of each shell                  R   N=          18
  4.16333634E-17  1.32817797E+00 -2.03032813E-01  4.16333634E-17  1.32817797E+00
 -2.03032813E-01 -2.08166817E-16 -1.32817797E+00 -2.03032813E-01 -2.08166817E-16
 -1.32817797E+00 -2.03032813E-01  1.26945011E-03  1.81554334E+00  1.62426250E+00
 -1.26945011E-03 -1.81554334E+00  1.62426250E+00
Num ILSW                                   I              100
ILSW                                       I   N=         100
           0           0           0           0           2           0
           0           0           0           0           0          -1
           5           0           0           0           2           0
           0           0           1           0           1           0
           1           0           0           0           0           0
           0           0      100000           0          -1           0
           0           0           0           0           0           0
           0           0           0           1           0           0
           0 -2000000000           1           0           0           0
           0           0           4          52           0           0
           0           0           0           0           0           0
           0           0           0           0           0           1
           0           0           0           0           0           0
           0           0           0           0           0           0
           0           0           0           0           0           0
           0           0           0           0           0           0
           0           0           0           0
Num RLSW                                   I               52
RLSW                                       R   N=          52
  1.00000000E+00  1.00000000E+00  1.00000000E+00  1.00000000E+00  1.00000000E+00
  0.00000000E+00  0.00000000E+00  1.00000000E+00  0.00000000E+00  0.00000000E+00
  0.00000000E+00  0.00000000E+00  1.00000000E+00  0.00000000E+00  0.00000000E+00
  0.00000000E+00  0.00000000E+00  1.00000000E+00  0.00000000E+00  0.00000000E+00
  0.00000000E+00  0.00000000E+00  1.00000000E+00  0.00000000E+00  0.00000000E+00
  0.00000000E+00  0.00000000E+00  1.00000000E+00  0.00000000E+00  0.00000000E+00
  0.00000000E+00  0.00000000E+00  1.00000000E+00  0.00000000E+00  0.00000000E+00
  0.00000000E+00  0.00000000E+00  0.00000000E+00  1.00000000E+00  1.00000000E+00
  0.00000000E+00  1.00000000E+00  0.00000000E+00  0.00000000E+00  0.00000000E+00
  0.00000000E+00  0.00000000E+00  0.00000000E+00  0.00000000E+00  0.00000000E+00
  0.00000000E+00  0.00000000E+00
MxBond                                     I                2
NBond                                      I   N=           4
           2           2           1           1
IBond                                      I   N=           8
           2           3           1           4           1           0
           2           0
RBond                                      R   N=           8
  1.00000000E+00  1.00000000E+00  1.00000000E+00  1.00000000E+00  1.00000000E+00
  0.00000000E+00  1.00000000E+00  0.00000000E+00
Virial Ratio                               R      2.008742479637323E+00
SCF Energy                                 R     -1.487504318739836E+02
Total Energy                               R     -1.487504318739836E+02
RMS Force                                  R      2.207621310950329E-05
RMS Density                                R      9.442841423327759E-10
NImag                                      I                1
Job Status                                 I                1
Nuclear derivative order                   I                2
External E-field                           R   N=          35
  0.00000000E+00  0.00000000E+00  0.00000000E+00  0.00000000E+00  0.00000000E+00
  0.00000000E+00  0.00000000E+00  0.00000000E+00  0.00000000E+00  0.00000000E+00
  0.00000000E+00  0.00000000E+00  0.00000000E+00  0.00000000E+00  0.00000000E+00
  0.00000000E+00  0.00000000E+00  0.00000000E+00  0.00000000E+00  0.00000000E+00
  0.00000000E+00  0.00000000E+00  0.00000000E+00  0.00000000E+00  0.00000000E+00
  0.00000000E+00  0.00000000E+00  0.00000000E+00  0.00000000E+00  0.00000000E+00
  0.00000000E+00  0.00000000E+00  0.00000000E+00  0.00000000E+00  0.00000000E+00
IOpCl                                      I                0
IROHF                                      I                0
Alpha Orbital Energies                     R   N=          12
 -2.03230170E+01 -2.03221422E+01 -1.40867812E+00 -1.11108552E+00 -6.60052781E-01
 -5.22029229E-01 -4.79788489E-01 -4.50767753E-01 -3.35166843E-01  4.90493058E-01
  5.13956822E-01  6.79774458E-01
Alpha MO coefficients                      R   N=         144
  7.02851383E-01  1.92519727E-02  1.61903715E-06 -2.99870138E-03  2.33600420E-03
 -7.02851383E-01 -1.92519727E-02  1.61903715E-06 -2.99870138E-03 -2.33600420E-03
 -4.21989611E-03  4.21989611E-03  7.03441978E-01  1.51690598E-02  1.58819142E-06
  9.37159137E-04  2.31463634E-03  7.03441978E-01  1.51690598E-02 -1.58819142E-06
 -9.37159137E-04  2.31463634E-03 -4.10123168E-03 -4.10123168E-03 -1.65906229E-01
  5.87895298E-01  3.24420832E-05 -9.71430214E-02  6.72708426E-02 -1.65906229E-01
  5.87895298E-01 -3.24420832E-05  9.71430214E-02  6.72708426E-02  8.96272959E-02
  8.96272959E-02 -1.71219121E-01  6.60758883E-01  6.53244628E-05  9.55798300E-02
  8.80857267E-02  1.71219121E-01 -6.60758883E-01  6.53244628E-05  9.55798300E-02
 -8.80857267E-02  1.76105606E-01 -1.76105606E-01  3.34019840E-02 -1.82184705E-01
  7.98959737E-05  2.45762267E-01  4.04263809E-01  3.34019840E-02 -1.82184705E-01
 -7.98959737E-05 -2.45762267E-01  4.04263809E-01  3.46412542E-01  3.46412542E-01
  1.13447943E-04 -5.67011811E-04  6.76878990E-01 -1.18991982E-04  3.28229645E-04
 -1.13447943E-04  5.67011811E-04  6.76878990E-01 -1.18991982E-04 -3.28229645E-04
  5.53366764E-04 -5.53366764E-04 -5.25913635E-02  2.51282953E-01  1.00629927E-04
  5.65022632E-01 -2.93804963E-01 -5.25913635E-02  2.51282953E-01 -1.00629927E-04
 -5.65022632E-01 -2.93804963E-01 -1.76532612E-02 -1.76532612E-02  7.17368613E-02
 -3.65234715E-01 -7.61355191E-04 -7.36262545E-02  5.12156851E-01 -7.17368613E-02
  3.65234715E-01 -7.61355191E-04 -7.36262545E-02 -5.12156851E-01  3.83457645E-01
 -3.83457645E-01  3.58248711E-05 -1.97054096E-04  7.41782441E-01 -1.88914964E-04
 -2.64699984E-04  3.58248711E-05 -1.97054096E-04 -7.41782441E-01  1.88914964E-04
 -2.64699984E-04  2.03978195E-04  2.03978195E-04  8.86943242E-02 -4.94295978E-01
 -1.44159459E-04  7.45339535E-01 -2.37563423E-01 -8.86943242E-02  4.94295978E-01
 -1.44159459E-04  7.45339535E-01  2.37563423E-01  3.13985441E-01 -3.13985441E-01
  6.55197839E-02 -4.26833949E-01 -4.62941752E-04 -1.80420082E-01 -5.50881196E-01
  6.55197839E-02 -4.26833949E-01  4.62941752E-04  1.80420082E-01 -5.50881196E-01
  7.51447518E-01  7.51447518E-01  3.24686956E-02 -2.39949331E-01 -3.60302788E-04
 -4.19023641E-01 -5.72306642E-01 -3.24686956E-02  2.39949331E-01 -3.60302788E-04
 -4.19023641E-01  5.72306642E-01  7.60409631E-01 -7.60409631E-01
Orthonormal basis                          R   N=         144
  1.12237164E-01  3.22847619E-01  7.28227357E-05 -1.13211134E-01  1.68144087E-01
  1.12237164E-01  3.22847619E-01 -7.28227357E-05  1.13211134E-01  1.68144087E-01
  3.25887018E-01  3.25887018E-01 -1.12424579E-01 -1.63767214E-01  9.69962445E-05
  4.43156725E-01  3.11839991E-01 -1.12424579E-01 -1.63767214E-01 -9.69962445E-05
 -4.43156725E-01  3.11839991E-01  1.94012910E-01  1.94012910E-01  3.62957935E-01
  2.06580961E-01 -2.01160976E-05  4.07479604E-01 -3.27983297E-01  3.62957935E-01
  2.06580961E-01  2.01160976E-05 -4.07479604E-01 -3.27983297E-01 -1.88772753E-02
 -1.88772753E-02 -1.07527447E-03  3.20918364E-04  7.41781028E-01  1.36075420E-04
 -8.86774401E-04 -1.07527447E-03  3.20918364E-04 -7.41781028E-01 -1.36075420E-04
 -8.86774401E-04  3.91456612E-04  3.91456612E-04  5.79371646E-01 -2.45331744E-01
  1.48538907E-03 -1.14662399E-01  3.54491981E-01  5.79371646E-01 -2.45331744E-01
 -1.48538907E-03  1.14662399E-01  3.54491981E-01 -1.79231319E-01 -1.79231319E-01
  1.94633735E-01 -6.24867093E-01 -3.26704813E-04 -1.82337594E-01 -4.46090195E-01
  1.94633735E-01 -6.24867093E-01  3.26704813E-04  1.82337594E-01 -4.46090195E-01
  7.18827410E-01  7.18827410E-01  1.88053450E-01  3.19134964E-01  2.58653888E-04
  1.92723890E-01  1.94487595E-01 -1.88053450E-01 -3.19134964E-01  2.58653888E-04
  1.92723890E-01 -1.94487595E-01  3.53256769E-01 -3.53256769E-01 -1.68172268E-03
 -7.77077701E-04  6.76875582E-01 -2.87071105E-04  1.11619456E-03  1.68172268E-03
  7.77077701E-04  6.76875582E-01 -2.87071105E-04 -1.11619456E-03  6.43750951E-04
 -6.43750951E-04  4.75076244E-01  1.72956627E-01  2.27097453E-03  4.08871022E-02
 -4.12627325E-01 -4.75076244E-01 -1.72956627E-01  2.27097453E-03  4.08871022E-02
  4.12627325E-01 -2.04287229E-01  2.04287229E-01  4.44780866E-01 -2.11113030E-01
  6.57064297E-05 -4.03862347E-01  4.08707917E-01 -4.44780866E-01  2.11113030E-01
  6.57064297E-05 -4.03862347E-01 -4.08707917E-01 -5.07385655E-02  5.07385655E-02
  1.85431084E-01 -3.71087460E-01  1.73791525E-04  7.33058496E-01  2.90733312E-01
 -1.85431084E-01  3.71087460E-01  1.73791525E-04  7.33058496E-01 -2.90733312E-01
 -3.23464218E-01  3.23464218E-01  2.10009696E-01 -7.47152940E-01 -3.00078286E-04
  7.98954331E-02 -4.40890657E-01 -2.10009696E-01  7.47152940E-01 -3.00078286E-04
  7.98954331E-02  4.40890657E-01  7.62334044E-01 -7.62334044E-01
Total SCF Density                          R   N=          78
  2.10939857E+00 -4.63939450E-01  2.02511014E+00  6.36239579E-05 -3.57748030E-04
  2.01681392E+00 -5.69699330E-02  2.60198359E-01 -1.70077661E-04  8.07305367E-01
  8.54456667E-02 -4.73409470E-01 -7.06867662E-04 -2.04964707E-01  1.04870136E+00
 -4.45041214E-03  3.92770937E-02  1.51181867E-05  3.80479303E-02 -7.75619467E-03
  2.10939857E+00  3.92770937E-02 -2.56368495E-01 -1.07627441E-04 -9.97553305E-02
  4.18275241E-02 -4.63939450E-01  2.02511014E+00 -1.51181867E-05  1.07627441E-04
 -1.84150911E-01  9.70832795E-05  5.88532947E-05 -6.36239579E-05  3.57748030E-04
  2.01681392E+00 -3.80479303E-02  9.97553305E-02  9.70832795E-05 -7.49044024E-01
  8.77806427E-02  5.69699330E-02 -2.60198359E-01 -1.70077661E-04  8.07305367E-01
 -7.75619467E-03  4.18275241E-02 -5.88532947E-05 -8.77806427E-02 -3.15758455E-02
  8.54456667E-02 -4.73409470E-01  7.06867662E-04  2.04964707E-01  1.04870136E+00
 -2.17318376E-02 -7.73761441E-02  5.48442374E-04  1.10124547E-01  7.26283201E-01
  7.10147181E-04  1.77048778E-02 -1.71994213E-04 -1.55675818E-01 -1.21289496E-01
  6.12868528E-01  7.10147181E-04  1.77048778E-02  1.71994213E-04  1.55675818E-01
 -1.21289496E-01 -2.17318376E-02 -7.73761441E-02 -5.48442374E-04 -1.10124547E-01
  7.26283201E-01 -9.94157257E-02  6.12868528E-01
Grdnt Energy                               R     -1.487504318739836E+02
Grdnt NVar                                 I                6
Grdnt IGetFC                               I                4
Internal Forces                            R   N=           6
  3.24062795E-05  2.76196495E-05  2.76196495E-05  1.53013294E-05  1.53013294E-05
  3.71484799E-05
Internal Force Constants                   R   N=          21
  7.02078334E-01 -2.20553644E-02  6.16398712E-01 -2.20553644E-02  7.36648157E-03
  6.16398712E-01  8.62785659E-02 -3.76830419E-03 -1.38267791E-02  3.54413862E-01
  8.62785659E-02 -1.38267791E-02 -3.76830419E-03 -1.47194568E-03  3.54413862E-01
  8.70274663E-05 -2.13373081E-05 -2.13373081E-05  5.22925726E-05  5.22925726E-05
 -2.67366710E-02
Mulliken Charges                           R   N=           4
 -1.77587461E-01 -1.77587461E-01  1.77587461E-01  1.77587461E-01
Optimization MaxStp                        I              100
Optimization Job offset                    I                0
Optimization Num results per geometry      I                2
Optimization Num geometry variables        I               12
Opt point       1 Results for each geome   R   N=           6
 -1.48741996E+02  0.00000000E+00 -1.48750392E+02  0.00000000E+00 -1.48750432E+02
  0.00000000E+00
Opt point       1 Geometries               R   N=          36
  1.38777878E-17  1.37317754E+00 -2.01861855E-01 -1.90819582E-16 -1.37317754E+00
 -2.01861855E-01  2.40150648E-01  1.58431001E+00  1.61489448E+00 -2.40150648E-01
 -1.58431001E+00  1.61489448E+00 -1.11022302E-16  1.32491857E+00 -2.02980809E-01
 -2.08166817E-17 -1.32491857E+00 -2.02980809E-01  3.81104161E-02  1.79493341E+00
  1.62384647E+00 -3.81104161E-02 -1.79493341E+00  1.62384647E+00  4.16333634E-17
  1.32817797E+00 -2.03032813E-01 -2.08166817E-16 -1.32817797E+00 -2.03032813E-01
  1.26945011E-03  1.81554334E+00  1.62426250E+00 -1.26945011E-03 -1.81554334E+00
  1.62426250E+00
Opt point       1 Gradient at each geome   R   N=          36
  4.36638402E-03  6.08168575E-02  2.69054864E-02 -4.36638402E-03 -6.08168575E-02
  2.69054864E-02 -7.97611220E-03 -2.76527000E-02 -2.69054864E-02  7.97611220E-03
  2.76527000E-02 -2.69054864E-02  8.38752120E-04 -3.46889422E-03  1.96559245E-03
 -8.38752120E-04  3.46889422E-03  1.96559245E-03 -6.72279641E-04 -2.50374623E-03
 -1.96559245E-03  6.72279641E-04  2.50374623E-03 -1.96559245E-03  2.77986102E-05
 -1.74709101E-05  2.45875530E-05 -2.77986102E-05  1.74709101E-05  2.45875530E-05
 -2.03469628E-05 -1.49353694E-05 -2.45875530E-05  2.03469628E-05  1.49353694E-05
 -2.45875530E-05
Optimization Number of geometries          I   N=           1
           3
ONIOM Charges                              I   N=          16
           0           0           0           0           0           0
           0           0           0           0           0           0
           0           0           0           0
ONIOM Multiplicities                       I   N=          16
           1           0           0           0           0           0
           0           0           0           0           0           0
           0           0           0           0
Atom Layers                                I   N=           4
           1           1           1           1
Atom Modifiers                             I   N=           4
           0           0           0           0
Force Field                                I                0
Atom Modified Types                        C   N=           4
                                                
Int Atom Modified Types                    I   N=           4
           0           0           0           0
Link Atoms                                 I   N=           4
           0           0           0           0
Atom Modified MM Charges                   R   N=           4
  0.00000000E+00  0.00000000E+00  0.00000000E+00  0.00000000E+00
Link Distances                             R   N=          16
  0.00000000E+00  0.00000000E+00  0.00000000E+00  0.00000000E+00  0.00000000E+00
  0.00000000E+00  0.00000000E+00  0.00000000E+00  0.00000000E+00  0.00000000E+00
  0.00000000E+00  0.00000000E+00  0.00000000E+00  0.00000000E+00  0.00000000E+00
  0.00000000E+00
Cartesian Gradient                         R   N=          12
  2.77986102E-05 -1.74709101E-05  2.45875530E-05 -2.77986102E-05  1.74709101E-05
  2.45875530E-05 -2.03469628E-05 -1.49353694E-05 -2.45875530E-05  2.03469628E-05
  1.49353694E-05 -2.45875530E-05
Cartesian Force Constants                  R   N=          78
 -1.49799052E-02  5.07295215E-05  7.57729981E-01  4.34271120E-04  9.07307464E-02
  7.13087108E-01  1.49667333E-02  4.06200515E-05 -1.02209978E-06 -1.49799052E-02
  4.06200515E-05 -6.21748335E-01 -9.80893971E-02  5.07295215E-05  7.57729981E-01
  1.02209978E-06  9.80893971E-02 -1.19563782E-01 -4.34271120E-04 -9.07307464E-02
  7.13087108E-01  1.09556448E-02 -7.52483300E-05 -4.18737498E-04 -1.09424729E-02
 -1.61012430E-05  1.45115222E-05 -8.02054902E-03 -5.05361372E-05 -9.40486456E-02
 -5.76633464E-02 -4.08134358E-05 -4.19330010E-02 -6.50219971E-02  9.99023026E-05
  1.32445644E-01 -4.22090802E-04 -1.60156124E-01 -5.97630166E-01  1.32024185E-05
  2.86640191E-02  4.10684001E-03  4.06557180E-04  1.27088724E-01  5.83032386E-01
 -1.09424729E-02 -1.61012430E-05 -1.45115222E-05  1.09556448E-02 -7.52483300E-05
  4.18737498E-04  8.00737713E-03 -8.55272960E-06  2.33120350E-06 -8.02054902E-03
 -4.08134358E-05 -4.19330010E-02  6.50219971E-02 -5.05361372E-05 -9.40486456E-02
  5.76633464E-02 -8.55272960E-06  3.53600236E-03  4.40338095E-03  9.99023026E-05
  1.32445644E-01 -1.32024185E-05 -2.86640191E-02  4.10684001E-03  4.22090802E-04
  1.60156124E-01 -5.97630166E-01 -2.33120350E-06 -4.40338095E-03  1.04909397E-02
 -4.06557180E-04 -1.27088724E-01  5.83032386E-01
Nonadiabatic coupling                      R   N=          12
  0.00000000E+00  0.00000000E+00  0.00000000E+00  0.00000000E+00  0.00000000E+00
  0.00000000E+00  0.00000000E+00  0.00000000E+00  0.00000000E+00  0.00000000E+00
  0.00000000E+00  0.00000000E+00
Dipole Moment                              R   N=           3
 -1.33226763E-15 -3.23352456E-15  1.07129277E+00
Dipole Derivatives                         R   N=          36
 -2.93135949E-01  3.97586000E-05  4.68449275E-04 -1.02703030E-05 -1.05580655E-01
 -8.63152849E-02  4.88041571E-04 -1.79806983E-01  1.58195292E-01 -2.93135949E-01
  3.97586000E-05 -4.68449275E-04 -1.02703030E-05 -1.05580655E-01  8.63152849E-02
 -4.88041571E-04  1.79806983E-01  1.58195292E-01  2.93135949E-01 -3.97586000E-05
 -3.39104156E-04  1.02703030E-05  1.05580655E-01  5.14056393E-03 -3.46694636E-04
 -5.72300686E-02 -1.58195292E-01  2.93135949E-01 -3.97586000E-05  3.39104156E-04
  1.02703030E-05  1.05580655E-01 -5.14056393E-03  3.46694636E-04  5.72300686E-02
 -1.58195292E-01
Polarizability                             R   N=           6
  2.81634277E-01  3.63292665E-03  9.11785721E+00 -7.03603842E-15 -4.77395901E-15
  6.51781723E+00
HyperPolarizability                        R   N=          10
  4.09394740E-16  1.01633112E-15 -7.10542736E-15  9.65894031E-15 -9.68245007E-02
  6.42216258E-03  7.03524174E+00 -1.37667655E-14 -1.86517468E-14  1.22308150E+01
QEq coupling tensors                       R   N=          24
 -1.52201867E+00 -2.75024048E-01  2.85403928E+00 -9.98014453E-01  2.73958454E-01
 -1.33202060E+00 -2.26909969E+00 -4.58925936E-01  2.83365867E+00  4.42500179E-01
  3.31517738E-01 -5.64558976E-01  1.46782688E-01 -4.25109212E-03  2.24427144E-01
 -2.88558408E-02  4.80055671E-02 -3.71209833E-01  1.46117698E-02 -3.67387859E-02
  2.20862268E-01  2.25999854E-01  5.79955131E-02 -2.35474038E-01
Number of Normal Modes                     I                6
Vib-LE2Fix                                 I               14
Vib-NDFDPol                                I                0
Vib-NumROA                                 I                0
Vib-NDim                                   I                4
Vib-NDim0                                  I                4
Vib-LFlags                                 I                8
Vib-IFlags                                 I   N=          48
           0           0           1           0           0           0
           0           0           0           0           2           0
           0           0           0           0           0           0
           3           0           0           0           0           0
           0           0           4           0           0           0
           0           0           0           0           5           0
           0           0           0           0           0           0
           6           0           0           0           0           0
Vib-AtMass                                 R   N=           4
  1.59949146E+01  1.59949146E+01  1.00782504E+00  1.00782504E+00
Vib-E2                                     R   N=          84
 -6.85333998E+02  1.46965220E+03  1.61081033E+03  1.79108476E+03  4.11939520E+03
  4.17692847E+03  1.11818581E+00  1.31323177E+01  1.01800960E+00  1.21319775E+00
  1.06801477E+00  1.07132216E+00  3.09434498E-01  1.67117033E+01  1.55629130E+00
  2.29305291E+00  1.06781097E+01  1.10124606E+01  1.21288691E-04  1.91901271E+00
  4.02855588E+00  1.66157589E+01  4.66454072E-01  4.64778418E+01  0.00000000E+00
  0.00000000E+00  0.00000000E+00  0.00000000E+00  0.00000000E+00  0.00000000E+00
  0.00000000E+00  0.00000000E+00  0.00000000E+00  0.00000000E+00  0.00000000E+00
  0.00000000E+00  0.00000000E+00  0.00000000E+00  0.00000000E+00  0.00000000E+00
  0.00000000E+00  0.00000000E+00  0.00000000E+00  0.00000000E+00  0.00000000E+00
  0.00000000E+00  0.00000000E+00  0.00000000E+00  0.00000000E+00  0.00000000E+00
  0.00000000E+00  0.00000000E+00  0.00000000E+00  0.00000000E+00  1.00000000E+02
  1.00000000E+02  1.00000000E+02  1.00000000E+02  1.00000000E+02  1.00000000E+02
  0.00000000E+00  0.00000000E+00  0.00000000E+00  0.00000000E+00  0.00000000E+00
  0.00000000E+00  0.00000000E+00  0.00000000E+00  0.00000000E+00  0.00000000E+00
  0.00000000E+00  0.00000000E+00  0.00000000E+00  0.00000000E+00  0.00000000E+00
  0.00000000E+00  0.00000000E+00  0.00000000E+00  0.00000000E+00  0.00000000E+00
  0.00000000E+00  0.00000000E+00  0.00000000E+00  0.00000000E+00
Vib-Modes                                  R   N=          72
 -6.06783256E-02 -3.47061822E-05  2.93994881E-05  6.06783256E-02  3.47061822E-05
  2.93994881E-05  7.04498336E-01 -1.22282533E-04 -4.66591209E-04 -7.04498336E-01
  1.22282533E-04 -4.66591209E-04 -3.62624810E-05  6.35921860E-01 -1.00643071E-02
  3.62624810E-05 -6.35921860E-01 -1.00643071E-02  6.06000477E-04  2.64553853E-01
  1.59727857E-01 -6.06000477E-04 -2.64553853E-01  1.59727857E-01  3.76664959E-05
 -1.52644413E-02  1.03331207E-02 -3.76664959E-05  1.52644413E-02  1.03331207E-02
  4.34419609E-05  6.87579921E-01 -1.63994124E-01 -4.34419609E-05 -6.87579921E-01
 -1.63994124E-01  5.28485011E-06 -4.35890004E-02  7.03679850E-02  5.28485011E-06
 -4.35890004E-02 -7.03679850E-02 -8.38744060E-05  6.91789066E-01 -1.20732046E-01
 -8.38744060E-05  6.91789066E-01  1.20732046E-01 -2.98914296E-05 -1.12155166E-02
 -4.33850684E-02 -2.98914296E-05 -1.12155166E-02  4.33850684E-02  4.74398677E-04
  1.77998387E-01  6.82867700E-01  4.74398677E-04  1.77998387E-01 -6.82867700E-01
 -2.94072637E-05 -1.59360832E-02 -4.31790975E-02  2.94072637E-05  1.59360832E-02
 -4.31790975E-02  4.58988213E-04  1.68130217E-01  6.85283609E-01 -4.58988213E-04
 -1.68130217E-01  6.85283610E-01
ClPar MaxAn                                I              200
ClPar NIntPar                              I                4
ClPar NRealPar                             I               16
ClPar NBits                                I               30
ClPar LenBitVec                            I                1
ClPar Read BitMap                          I   N=         200
           0           0           0           0           0           0