relaxed scan                                                            
Scan      RHF                                                         STO-3G              
Number of atoms                            I                4
Info1-9                                    I   N=           9
          13          13           0           0           0         110
           8           1           2
Full Title                                 C   N=           1
relaxed scan
Route                                      C   N=           3
# HF/sto-3g opt=modredundant        
Charge                                     I                0
Multiplicity                               I                1
Number of electrons                        I               18
Number of alpha electrons                  I                9
Number of beta electrons                   I                9
Number of basis functions                  I               12
Number of independent functions            I               12
Number of point charges in /Mol/           I                0
Number of translation vectors              I                0
Atomic numbers                             I   N=           4
           8           8           1           1
Nuclear charges                            R   N=           4
  8.00000000E+00  8.00000000E+00  1.00000000E+00  1.00000000E+00
Current cartesian coordinates              R   N=          12
  9.71445147E-17  1.32343533E+00  4.47157103E-02 -6.24500451E-17 -1.32343533E+00
  4.47157103E-02  1.81529581E+00  1.65572000E+00 -3.57725683E-01 -1.81529581E+00
 -1.65572000E+00 -3.57725683E-01
Number of symbols in /Mol/                 I                0
Force Field                                I                0
Atom Types                                 C   N=           4
                                                
Int Atom Types                             I   N=           4
           0           0           0           0
MM charges                                 R   N=           4
  0.00000000E+00  0.00000000E+00  0.00000000E+00  0.00000000E+00
Integer atomic weights                     I   N=           4
          16          16           1           1
Real atomic weights                        R   N=           4
  1.59949146E+01  1.59949146E+01  1.00782504E+00  1.00782504E+00
Atom fragment info                         I   N=           4
           0           0           0           0
Atom residue num                           I   N=           4
           0           0           0           0
Nuclear spins                              I   N=           4
           0           0           1           1
Nuclear ZEff                               R   N=           4
 -5.60000000E+00 -5.60000000E+00 -1.00000000E+00 -1.00000000E+00
Nuclear ZNuc                               R   N=           4
  8.00000000E+00  8.00000000E+00  1.00000000E+00  1.00000000E+00
Nuclear QMom                               R   N=           4
  0.00000000E+00  0.00000000E+00  0.00000000E+00  0.00000000E+00
Nuclear GFac                               R   N=           4
  0.00000000E+00  0.00000000E+00  2.79284600E+00  2.79284600E+00
MicOpt                                     I   N=           4
          -1          -1          -1          -1
Number of residues                         I                0
Number of secondary structures             I                0
Redundant internal dimensions              I   N=           4
           6           3           2           1
Redundant internal coordinate indices      I   N=          24
           1           2           0           0           1           3
           0           0           2           4           0           0
           2           1           3           0           1           2
           4           0           3           1           2           4
Redundant internal coordinates             R   N=           6
  2.64687065E+00  1.88882796E+00  1.88882796E+00  1.74763770E+00  1.74763770E+00
 -2.70526034E+00
ZRed-IntVec                                I   N=           6
           0           0           0           0           0       -1006
ZRed-FPVec                                 R   N=           6
  0.00000000E+00  0.00000000E+00  0.00000000E+00  0.00000000E+00  0.00000000E+00
  8.72664626E-02
ZRed-Constraint1                           R   N=           6
  2.74635413E+00  1.84466300E+00  1.84466300E+00  1.68550874E+00  1.68550874E+00
  3.57792497E+00
ZRed-Constraint2                           R   N=           6
  0.00000000E+00  0.00000000E+00  0.00000000E+00  0.00000000E+00  0.00000000E+00
 -3.14159265E+00
SymInf integers                            I   N=          26
           2           2           1           1           1          -1
          -1           1           0           0           0           0
           0           0           0           0           0           0
           0           0           0           0           0           0
           0           0
RotTr to input orientation                 R   N=          12
 -6.43795298E-02 -8.31826153E-01 -5.51289877E-01 -9.97925486E-01  5.36631286E-02
  3.55667328E-02 -1.39896447E-06  5.52435988E-01 -8.33555325E-01  3.03040239E+00
  1.27730605E-01  2.00611212E-02
Number of contracted shells                I                6
Number of primitive shells                 I               18
Pure/Cartesian d shells                    I                0
Pure/Cartesian f shells                    I                0
Highest angular momentum                   I                1
Largest degree of contraction              I                3
Shell types                                I   N=           6
           0          -1           0          -1           0           0
Number of primitives per shell             I   N=           6
           3           3           3           3           3           3
Shell to atom map                          I   N=           6
           1           1           2           2           3           4
Primitive exponents                        R   N=          18
  1.30709321E+02  2.38088661E+01  6.44360831E+00  5.03315132E+00  1.16959612E+00
  3.80388960E-01  1.30709321E+02  2.38088661E+01  6.44360831E+00  5.03315132E+00
  1.16959612E+00  3.80388960E-01  3.42525091E+00  6.23913730E-01  1.68855404E-01
  3.42525091E+00  6.23913730E-01  1.68855404E-01
Contraction coefficients                   R   N=          18
  1.54328967E-01  5.35328142E-01  4.44634542E-01 -9.99672292E-02  3.99512826E-01
  7.00115469E-01  1.54328967E-01  5.35328142E-01  4.44634542E-01 -9.99672292E-02
  3.99512826E-01  7.00115469E-01  1.54328967E-01  5.35328142E-01  4.44634542E-01
  1.54328967E-01  5.35328142E-01  4.44634542E-01
P(S=P) Contraction coefficients            R   N=          18
  0.00000000E+00  0.00000000E+00  0.00000000E+00  1.55916275E-01  6.07683719E-01
  3.91957393E-01  0.00000000E+00  0.00000000E+00  0.00000000E+00  1.55916275E-01
  6.07683719E-01  3.91957393E-01  0.00000000E+00  0.00000000E+00  0.00000000E+00
  0.00000000E+00  0.00000000E+00  0.00000000E+00
Coordinates of each shell                  R   N=          18
  9.62771529E-17  1.32343533E+00  4.47157103E-02  9.62771529E-17  1.32343533E+00
  4.47157103E-02 -3.46944695E-17 -1.32343533E+00  4.47157103E-02 -3.46944695E-17
 -1.32343533E+00  4.47157103E-02  1.81529581E+00  1.65572000E+00 -3.57725683E-01
 -1.81529581E+00 -1.65572000E+00 -3.57725683E-01
Num ILSW                                   I              100
ILSW                                       I   N=         100
           0           0           0           1           2           0
           0           0           0           0           0          -1
           5           0           0           0           2           0
           0           0           1           0           1           0
           1           0           0           0           0           0
           0           0      100000           0          -1           0
           0           0           0           0           0           0
           0           0           0           1           0           0
           0 -2000000000           1           0           0           0
           0           0           4          52           0           0
           0           0           0           0           0           0
           0           0           0           0           0           1
           0           0           0           0           0           0
           0           0           0           0           0           0
           0           0           0           0           0           0
           0           0           0           0           0           0
           0           0           0           0
Num RLSW                                   I               52
RLSW                                       R   N=          52
  1.00000000E+00  1.00000000E+00  1.00000000E+00  1.00000000E+00  1.00000000E+00
  0.00000000E+00  0.00000000E+00  1.00000000E+00  0.00000000E+00  0.00000000E+00
  0.00000000E+00  0.00000000E+00  1.00000000E+00  0.00000000E+00  0.00000000E+00
  0.00000000E+00  0.00000000E+00  1.00000000E+00  0.00000000E+00  0.00000000E+00
  0.00000000E+00  0.00000000E+00  1.00000000E+00  0.00000000E+00  0.00000000E+00
  0.00000000E+00  0.00000000E+00  1.00000000E+00  0.00000000E+00  0.00000000E+00
  0.00000000E+00  0.00000000E+00  1.00000000E+00  0.00000000E+00  0.00000000E+00
  0.00000000E+00  0.00000000E+00  0.00000000E+00  1.00000000E+00  1.00000000E+00
  0.00000000E+00  1.00000000E+00  0.00000000E+00  0.00000000E+00  0.00000000E+00
  0.00000000E+00  0.00000000E+00  0.00000000E+00  0.00000000E+00  0.00000000E+00
  0.00000000E+00  0.00000000E+00
MxBond                                     I                2
NBond                                      I   N=           4
           2           2           1           1
IBond                                      I   N=           8
           2           3           1           4           1           0
           2           0
RBond                                      R   N=           8
  1.00000000E+00  1.00000000E+00  1.00000000E+00  1.00000000E+00  1.00000000E+00
  0.00000000E+00  1.00000000E+00  0.00000000E+00
Virial Ratio                               R      2.008443523153851E+00
SCF Energy                                 R     -1.487649051544900E+02
Total Energy                               R     -1.487649051544900E+02
RMS Force                                  R      4.140346224938570E-05
RMS Density                                R      1.823708901710826E-09
Job Status                                 I                1
Nuclear derivative order                   I                1
External E-field                           R   N=          35
  0.00000000E+00  0.00000000E+00  0.00000000E+00  0.00000000E+00  0.00000000E+00
  0.00000000E+00  0.00000000E+00  0.00000000E+00  0.00000000E+00  0.00000000E+00
  0.00000000E+00  0.00000000E+00  0.00000000E+00  0.00000000E+00  0.00000000E+00
  0.00000000E+00  0.00000000E+00  0.00000000E+00  0.00000000E+00  0.00000000E+00
  0.00000000E+00  0.00000000E+00  0.00000000E+00  0.00000000E+00  0.00000000E+00
  0.00000000E+00  0.00000000E+00  0.00000000E+00  0.00000000E+00  0.00000000E+00
  0.00000000E+00  0.00000000E+00  0.00000000E+00  0.00000000E+00  0.00000000E+00
IOpCl                                      I                0
IROHF                                      I                0
Alpha Orbital Energies                     R   N=          12
 -2.03144720E+01 -2.03136892E+01 -1.40580900E+00 -1.10351820E+00 -6.07786752E-01
 -5.72241682E-01 -5.12865478E-01 -4.06596295E-01 -3.33831226E-01  5.10337863E-01
  5.93323303E-01  6.14158261E-01
Alpha MO coefficients                      R   N=         144
  7.02866095E-01  1.91439471E-02  2.15018826E-03 -3.24712537E-03 -4.76151377E-04
 -7.02866095E-01 -1.91439471E-02  2.15018826E-03 -3.24712537E-03  4.76151377E-04
 -3.82153142E-03  3.82153142E-03  7.03411035E-01  1.53637340E-02  2.28772322E-03
  7.94955158E-04 -5.39849286E-04  7.03411035E-01  1.53637340E-02 -2.28772322E-03
 -7.94955158E-04 -5.39849286E-04 -4.45682580E-03 -4.45682580E-03 -1.66656044E-01
  5.90058400E-01  4.70485002E-02 -1.02529952E-01 -1.52932110E-02 -1.66656044E-01
  5.90058400E-01 -4.70485002E-02  1.02529952E-01 -1.52932110E-02  8.56176539E-02
  8.56176539E-02 -1.70490399E-01  6.60196095E-01  9.62392749E-02  9.14497458E-02
 -1.95144271E-02  1.70490399E-01 -6.60196095E-01  9.62392749E-02  9.14497458E-02
  1.95144271E-02  1.71085818E-01 -1.71085818E-01  7.07309851E-02 -3.42748838E-01
  4.90308196E-01 -7.69837959E-02 -1.42449215E-02 -7.07309851E-02  3.42748838E-01
  4.90308196E-01 -7.69837959E-02  1.42449215E-02  2.96548319E-01 -2.96548319E-01
  8.80147389E-03 -7.11928215E-02  2.37512124E-01  4.03638775E-01 -2.79501561E-01
  8.80147389E-03 -7.11928215E-02 -2.37512124E-01 -4.03638775E-01 -2.79501561E-01
  3.21937735E-01  3.21937735E-01 -1.54226786E-02  6.55863375E-02  1.17082782E-01
  2.67735694E-01  6.00984216E-01 -1.54226786E-02  6.55863375E-02 -1.17082782E-01
 -2.67735694E-01  6.00984216E-01  7.02737249E-02  7.02737249E-02  6.11693679E-02
 -3.19088518E-01  4.60608646E-01 -3.95028254E-01  9.80917398E-02  6.11693679E-02
 -3.19088518E-01 -4.60608646E-01  3.95028254E-01  9.80917398E-02  2.36217566E-01
  2.36217566E-01 -1.00024176E-02  5.22786697E-02  8.78797035E-02  1.48509785E-02
  7.31800716E-01  1.00024176E-02 -5.22786697E-02  8.78797035E-02  1.48509785E-02
 -7.31800716E-01 -6.35859404E-02  6.35859404E-02  8.89674940E-02 -4.97808998E-01
 -2.06131606E-01  7.55177007E-01  4.86737396E-02 -8.89674940E-02  4.97808998E-01
 -2.06131606E-01  7.55177007E-01 -4.86737396E-02  3.19501728E-01 -3.19501728E-01
  6.49374853E-02 -4.25753364E-01 -5.93895631E-01 -1.30188419E-01  1.18058965E-01
  6.49374853E-02 -4.25753364E-01  5.93895631E-01  1.30188419E-01  1.18058965E-01
  7.61004139E-01  7.61004139E-01  3.21060835E-02 -2.35280478E-01 -5.23085969E-01
 -3.98489546E-01  1.30123178E-01 -3.21060835E-02  2.35280478E-01 -5.23085969E-01
 -3.98489546E-01 -1.30123178E-01  7.49263967E-01 -7.49263967E-01
Orthonormal basis                          R   N=         144
  1.29122519E-01  3.57329722E-01  9.88344619E-02 -1.59377739E-01 -3.72882540E-02
  1.29122519E-01  3.57329722E-01 -9.88344619E-02  1.59377739E-01 -3.72882540E-02
  3.00654627E-01  3.00654627E-01 -1.55093544E-02 -2.26361253E-02  2.06282509E-01
  5.32991250E-01 -1.34561793E-01 -1.55093544E-02 -2.26361253E-02 -2.06282509E-01
 -5.32991250E-01 -1.34561793E-01  2.31603661E-01  2.31603661E-01  2.27638954E-01
  1.15350922E-01 -5.94593969E-02  1.98993901E-01  5.87870778E-01  2.27638954E-01
  1.15350922E-01  5.94593969E-02 -1.98993901E-01  5.87870778E-01 -3.69165034E-02
 -3.69165034E-02  4.34938411E-01  1.21984454E-01 -3.72333364E-01  1.58163234E-01
 -2.93723087E-01  4.34938411E-01  1.21984454E-01  3.72333364E-01 -1.58163234E-01
 -2.93723087E-01 -1.61961149E-01 -1.61961149E-01  4.88212445E-01 -2.97200157E-01
  4.81349418E-01 -1.50945492E-01 -3.71886943E-02  4.88212445E-01 -2.97200157E-01
 -4.81349418E-01  1.50945492E-01 -3.71886943E-02 -9.93124058E-02 -9.93124058E-02
  1.85956298E-01 -6.29402458E-01 -4.59375649E-01 -1.45727047E-01  1.01743010E-01
  1.85956298E-01 -6.29402458E-01  4.59375649E-01  1.45727047E-01  1.01743010E-01
  7.54564729E-01  7.54564729E-01  1.17149008E-01  2.33396866E-01  3.00689148E-01
  1.34380539E-01 -3.58453912E-02 -1.17149008E-01 -2.33396866E-01  3.00689148E-01
  1.34380539E-01  3.58453912E-02  3.65907279E-01 -3.65907279E-01  4.06268125E-01
  2.98836096E-01 -3.78492341E-01  1.61269698E-01  1.76379932E-02 -4.06268125E-01
 -2.98836096E-01 -3.78492341E-01  1.61269698E-01 -1.76379932E-02 -6.71537469E-02
  6.71537469E-02  2.28090763E-01 -5.86874987E-02  1.88902558E-01 -1.27550426E-01
  6.57471624E-01 -2.28090763E-01  5.86874987E-02  1.88902558E-01 -1.27550426E-01
 -6.57471624E-01 -7.95733141E-02  7.95733141E-02  4.79982323E-01 -1.89950020E-01
  2.12384375E-01 -3.66397795E-01 -3.28238470E-01 -4.79982323E-01  1.89950020E-01
  2.12384375E-01 -3.66397795E-01  3.28238470E-01 -1.04634413E-01  1.04634413E-01
  1.61669212E-01 -3.06885164E-01  3.01689983E-01  7.21089679E-01 -7.57962446E-02
 -1.61669212E-01  3.06885164E-01  3.01689983E-01  7.21089679E-01  7.57962446E-02
 -3.76176234E-01  3.76176234E-01 -2.23189648E-01  7.62971203E-01  4.09905110E-01
 -1.70452520E-01 -8.98160816E-02  2.23189648E-01 -7.62971203E-01  4.09905110E-01
 -1.70452520E-01  8.98160816E-02 -6.98255176E-01  6.98255176E-01
Total SCF Density                          R   N=          78
  2.10961797E+00 -4.65107361E-01  2.03205526E+00  8.22651070E-02 -4.56577841E-01
  1.08378220E+00 -6.11221618E-02  2.83722505E-01 -1.74411518E-01  8.31375326E-01
 -1.77892283E-02  9.84605259E-02  2.07775981E-01  4.21747489E-02  1.97055112E+00
 -3.14461247E-03  3.03619991E-02  6.64752978E-03  3.27469716E-02  3.55069923E-03
  2.10961797E+00  3.03619991E-02 -1.93685545E-01 -5.70563462E-02 -6.61778879E-02
 -2.25296108E-02 -4.65107361E-01  2.03205526E+00 -6.64752978E-03  5.70563462E-02
 -5.42158323E-02  6.38250735E-02  1.40118192E-02 -8.22651070E-02  4.56577841E-01
  1.08378220E+00 -3.27469716E-02  6.61778879E-02  6.38250735E-02 -7.73292701E-01
 -1.44858272E-03  6.11221618E-02 -2.83722505E-01 -1.74411518E-01  8.31375326E-01
  3.55069923E-03 -2.25296108E-02 -1.40118192E-02  1.44858272E-03 -1.73913863E-01
 -1.77892283E-02  9.84605259E-02 -2.07775981E-01 -4.21747489E-02  1.97055112E+00
 -2.28960590E-02 -7.06455614E-02  7.07565828E-01  7.71024850E-02 -1.59956074E-01
  1.80773260E-02 -1.02290560E-01 -8.24893647E-02 -1.09564746E-01  5.64173911E-02
  5.86000649E-01  1.80773260E-02 -1.02290560E-01  8.24893647E-02  1.09564746E-01
  5.64173911E-02 -2.28960590E-02 -7.06455614E-02 -7.07565828E-01 -7.71024850E-02
 -1.59956074E-01  1.00924495E-01  5.86000649E-01
Grdnt Energy                               R     -1.487649051544900E+02
Grdnt NVar                                 I                6
Grdnt IGetFC                               I                0
Internal Forces                            R   N=           6
 -6.08345047E-06  2.88792909E-06  2.88792909E-06  5.91806941E-06  5.91806941E-06
  1.30744658E-04
Internal Force Constants                   R   N=          21
  7.17387486E-01 -1.31091875E-02  5.72414123E-01 -1.31091875E-02  5.10228127E-02
  5.72414123E-01  6.97484200E-02  6.08000633E-03  6.08000633E-03  2.81760313E-01
  6.97484200E-02  6.08000634E-03  6.08000633E-03  1.21760313E-01  2.81760313E-01
  4.27219588E-03 -2.51328153E-03 -2.51328153E-03 -9.06809855E-03 -9.06809855E-03
  6.39699169E-03
Mulliken Charges                           R   N=           4
 -1.92900083E-01 -1.92900083E-01  1.92900083E-01  1.92900083E-01
Optimization MaxStp                        I              100
Optimization Job offset                    I                0
Optimization Num results per geometry      I                2
Optimization Num geometry variables        I               12
Opt point       1 Results for each geome   R   N=          12
 -1.48759755E+02  0.00000000E+00 -1.48763504E+02  0.00000000E+00 -1.48764845E+02
  0.00000000E+00 -1.48764840E+02  0.00000000E+00 -1.48764883E+02  0.00000000E+00
 -1.48764883E+02  0.00000000E+00
Opt point       1 Geometries               R   N=          72
 -1.38777878E-16  1.37317707E+00 -1.38777878E-17  9.02056208E-17 -1.37317707E+00
  0.00000000E+00  1.83253940E+00  1.58431903E+00  1.11022302E-16 -1.83253940E+00
 -1.58431903E+00 -1.11022302E-16 -1.31838984E-16  1.30252828E+00 -6.93889390E-18
  4.51028104E-17 -1.30252828E+00  6.93889390E-18  1.85942837E+00  1.70565735E+00
  0.00000000E+00 -1.85942837E+00 -1.70565735E+00 -1.11022302E-16 -2.08166817E-16
  1.32368716E+00  9.71445147E-17  2.01227923E-16 -1.32368716E+00 -2.08166817E-17
  1.86697548E+00  1.63163882E+00 -3.33066907E-16 -1.86697548E+00 -1.63163882E+00
  1.11022302E-16  7.63278329E-17  1.32845935E+00 -5.55111512E-17 -3.36536354E-16
 -1.32845935E+00 -1.38777878E-17  1.85745518E+00  1.66169619E+00  2.22044605E-16
 -1.85745518E+00 -1.66169619E+00 -1.11022302E-16  9.36750677E-17  1.32433116E+00
 -4.16333634E-17 -2.67147415E-16 -1.32433116E+00 -6.93889390E-18  1.85970174E+00
  1.64631025E+00  4.44089210E-16 -1.85970174E+00 -1.64631025E+00  1.11022302E-16
 -1.21430643E-16  1.32466211E+00  3.46944695E-17  6.59194921E-17 -1.32466211E+00
  0.00000000E+00  1.86049354E+00  1.64675897E+00 -1.11022302E-16 -1.86049354E+00
 -1.64675897E+00  2.22044605E-16
Opt point       1 Gradient at each geome   R   N=          72
  1.72273328E-02  6.83921103E-02 -4.14598911E-16 -1.72273328E-02 -6.83921103E-02
  3.66026653E-16 -2.98069286E-02 -1.28605726E-02  3.72965547E-16  2.98069286E-02
  1.28605726E-02 -3.27862737E-16  2.90308696E-03 -3.80691546E-02  1.43114687E-17
 -2.90308696E-03  3.80691546E-02  3.26561694E-16  8.30577394E-03  9.65251284E-03
 -8.41340886E-17 -8.30577394E-03 -9.65251284E-03 -2.56739074E-16 -5.19698815E-03
 -1.17503170E-03  1.72561618E-15  5.19698815E-03  1.17503170E-03 -8.72132228E-16
  2.70281275E-03 -1.32255210E-03 -1.28608062E-15 -2.70281275E-03  1.32255210E-03
  4.32596667E-16  3.11071275E-03  4.78280402E-03 -8.32233588E-16 -3.11071275E-03
 -4.78280402E-03  4.72061626E-16 -8.70435823E-04  1.44609443E-03  7.02237747E-16
  8.70435823E-04 -1.44609443E-03 -3.41252634E-16  4.04933804E-04 -3.16089080E-04
 -1.47028657E-15 -4.04933804E-04  3.16089080E-04 -2.50423597E-16 -4.21581769E-04
 -8.48458622E-05  1.37587966E-15  4.21581769E-04  8.48458622E-05  3.44884711E-16
 -3.42928693E-05  2.51063903E-05  3.67829140E-16  3.42928693E-05 -2.51063904E-05
 -3.92552337E-16  5.68619326E-05  2.59143181E-05 -3.06612374E-16 -5.68619326E-05
 -2.59143181E-05  3.31338960E-16
Opt point       2 Results for each geome   R   N=           2
 -1.48764884E+02  0.00000000E+00
Opt point       2 Geometries               R   N=          12
 -3.12250226E-17  1.32462999E+00  9.01669606E-03  2.35922393E-16 -1.32462999E+00
  9.01669606E-03  1.85864663E+00  1.64660056E+00 -7.21335685E-02 -1.85864663E+00
 -1.64660056E+00 -7.21335685E-02
Opt point       2 Gradient at each geome   R   N=          12
 -5.13587468E-05  8.98207866E-05 -7.25407793E-06  5.13587467E-05 -8.98207866E-05
 -7.25407793E-06 -1.48044979E-05 -4.97179214E-05  7.25407793E-06  1.48044979E-05
  4.97179214E-05  7.25407793E-06
Opt point       3 Results for each geome   R   N=           2
 -1.48764885E+02  0.00000000E+00
Opt point       3 Geometries               R   N=          12
 -4.33680869E-16  1.32458245E+00  1.80157927E-02  9.29811783E-16 -1.32458245E+00
  1.80157927E-02  1.85329307E+00  1.64698227E+00 -1.44126341E-01 -1.85329307E+00
 -1.64698227E+00 -1.44126341E-01
Opt point       3 Gradient at each geome   R   N=          12
 -1.51369652E-04  2.69023955E-04 -1.73159123E-05  1.51369652E-04 -2.69023955E-04
 -1.73159123E-05 -4.47001769E-05 -1.47910661E-04  1.73159123E-05  4.47001769E-05
  1.47910661E-04  1.73159123E-05
Opt point       4 Results for each geome   R   N=           2
 -1.48764889E+02  0.00000000E+00
Opt point       4 Geometries               R   N=          12
 -2.35922393E-16  1.32443986E+00  2.69788915E-02  5.55111512E-16 -1.32443986E+00
  2.69788915E-02  1.84432524E+00  1.64811580E+00 -2.15831132E-01 -1.84432524E+00
 -1.64811580E+00 -2.15831132E-01
Opt point       4 Gradient at each geome   R   N=          12
 -2.46088230E-04  4.46299289E-04 -3.21529658E-05  2.46088230E-04 -4.46299289E-04
 -3.21529658E-05 -7.41087225E-05 -2.42944620E-04  3.21529658E-05  7.41087225E-05
  2.42944620E-04  3.21529658E-05
Opt point       5 Results for each geome   R   N=           4
 -1.48764895E+02  0.00000000E+00 -1.48764896E+02  0.00000000E+00
Opt point       5 Geometries               R   N=          24
  1.14491749E-16  1.32420276E+00  3.58877532E-02 -6.24500451E-17 -1.32420276E+00
  3.58877532E-02  1.83176606E+00  1.64997308E+00 -2.87102025E-01 -1.83176606E+00
 -1.64997308E+00 -2.87102025E-01 -6.07153217E-17  1.32387252E+00  3.58820976E-02
  2.56739074E-16 -1.32387252E+00  3.58820976E-02  1.83147739E+00  1.65251210E+00
 -2.87056781E-01 -1.83147739E+00 -1.65251210E+00 -2.87056781E-01
Opt point       5 Gradient at each geome   R   N=          24
 -3.33126326E-04  6.19903115E-04 -5.27406641E-05  3.33126326E-04 -6.19903115E-04
 -5.27406641E-05 -1.02574260E-04 -3.33214833E-04  5.27406641E-05  1.02574260E-04
  3.33214833E-04  5.27406641E-05 -1.08002101E-05  2.04128927E-05 -4.84404113E-05
  1.08002101E-05 -2.04128927E-05 -4.84404113E-05  2.72304314E-06 -5.34879330E-06
  4.84404113E-05 -2.72304314E-06  5.34879330E-06  4.84404113E-05
Opt point       6 Results for each geome   R   N=           4
 -1.48764904E+02  0.00000000E+00 -1.48764905E+02  0.00000000E+00
Opt point       6 Geometries               R   N=          24
  1.31838984E-16  1.32385994E+00  4.47244178E-02 -3.46944695E-17 -1.32385994E+00
  4.47244178E-02  1.81564931E+00  1.65254545E+00 -3.57795343E-01 -1.81564931E+00
 -1.65254545E+00 -3.57795343E-01  9.62771529E-17  1.32343533E+00  4.47157103E-02
 -3.46944695E-17 -1.32343533E+00  4.47157103E-02  1.81529581E+00  1.65572000E+00
 -3.57725683E-01 -1.81529581E+00 -1.65572000E+00 -3.57725683E-01
Opt point       6 Gradient at each geome   R   N=          24
 -4.09911098E-04  7.67966245E-04 -7.77065173E-05  4.09911098E-04 -7.67966245E-04
 -7.77065173E-05 -1.24170774E-04 -4.11898306E-04  7.77065173E-05  1.24170774E-04
  4.11898306E-04  7.77065173E-05 -2.11688043E-05  9.67583025E-06 -6.91458607E-05
  2.11688043E-05 -9.67583025E-06 -6.91458607E-05  1.29820595E-05 -3.59251880E-06
  6.91458607E-05 -1.29820594E-05  3.59251879E-06  6.91458607E-05
Optimization Number of geometries          I   N=           6
           6           1           1           1           2           2
ONIOM Charges                              I   N=          16
           0           0           0           0           0           0
           0           0           0           0           0           0
           0           0           0           0
ONIOM Multiplicities                       I   N=          16
           1           0           0           0           0           0
           0           0           0           0           0           0
           0           0           0           0
Atom Layers                                I   N=           4
           1           1           1           1
Atom Modifiers                             I   N=           4
           0           0           0           0
Force Field                                I                0
Atom Modified Types                        C   N=           4
                                                
Int Atom Modified Types                    I   N=           4
           0           0           0           0
Link Atoms                                 I   N=           4
           0           0           0           0
Atom Modified MM Charges                   R   N=           4
  0.00000000E+00  0.00000000E+00  0.00000000E+00  0.00000000E+00
Link Distances                             R   N=          16
  0.00000000E+00  0.00000000E+00  0.00000000E+00  0.00000000E+00  0.00000000E+00
  0.00000000E+00  0.00000000E+00  0.00000000E+00  0.00000000E+00  0.00000000E+00
  0.00000000E+00  0.00000000E+00  0.00000000E+00  0.00000000E+00  0.00000000E+00
  0.00000000E+00
Cartesian Gradient                         R   N=          12
 -2.11688043E-05  9.67583025E-06 -6.91458607E-05  2.11688043E-05 -9.67583025E-06
 -6.91458607E-05  1.29820595E-05 -3.59251880E-06  6.91458607E-05 -1.29820594E-05
  3.59251879E-06  6.91458607E-05
Nonadiabatic coupling                      R   N=          12
  0.00000000E+00  0.00000000E+00  0.00000000E+00  0.00000000E+00  0.00000000E+00
  0.00000000E+00  0.00000000E+00  0.00000000E+00  0.00000000E+00  0.00000000E+00
  0.00000000E+00  0.00000000E+00
Dipole Moment                              R   N=           3
  7.21644966E-16 -2.10855639E-15 -2.44013839E-01
Quadrupole Moment                          R   N=           6
  1.33311430E+00 -5.80145676E-01 -7.52968619E-01  1.83392658E+00 -2.55351296E-15
 -2.22044605E-16
QEq coupling tensors                       R   N=          24
 -7.98507567E-01 -7.22861312E-01 -1.90144678E+00  8.13215140E-01  1.67524096E-01
  2.69995435E+00 -7.98507567E-01 -7.22861312E-01 -1.90144678E+00 -8.13215140E-01
 -1.67524096E-01  2.69995435E+00 -3.30834018E-01 -1.12441763E-01  1.35106586E-01
  1.22233386E-01  2.52206396E-02  1.95727433E-01 -3.30834018E-01 -1.12441763E-01
  1.35106586E-01 -1.22233386E-01 -2.52206396E-02  1.95727433E-01
ClPar MaxAn                                I              200
ClPar NIntPar                              I                4
ClPar NRealPar                             I               16
ClPar NBits                                I               30
ClPar LenBitVec                            I                1
ClPar Read BitMap                          I   N=         200
           0           0           0           0           0           0
           0           0           0           0           0           0
           0           0           0           0           0           0
           0           0           0           0           0           0
           0           0           0           0           0           0
           0           0           0           0           0           0
           0           0           0           0           0           0
           0           0           0           0           0           0
           0           0           0           0           0           0
           0           0           0           0           0           0
           0           0           0           0           0           0
           0           0           0           0           0           0
           0           0           0           0           0           0