[Molden Format]
[Atoms] (AU)
CU   1   29         0.000000000000       0.000000000000       0.000000000000
H    2    1         0.500000000000       0.700000000000      -0.800000000000
[GTO]
  1 0
 s   21  1.00
 16665490.0000000000         0.0000019222
  2495213.0000000000         0.0000149466
   567850.7000000000         0.0000786311
   160853.1000000000         0.0003321189
    52481.8600000000         0.0012096490
    18948.8500000000         0.0039362310
     7391.6550000000         0.0116603100
     3066.5170000000         0.0314951200
     1337.9940000000         0.0764638500
      608.7830000000         0.1595162000
      286.8980000000         0.2618983000
      139.1530000000         0.2816708000
       68.4945500000         0.1509587000
       31.6010800000         0.0704195500
       15.9915800000         0.1180039000
        8.0565100000         0.0801518700
        3.6903290000         0.0102012200
        1.7629020000        -0.0003720464
        0.8012690000        -0.0000220689
        0.1842430000        -0.0000240109
        0.0817930000         0.0000152982
 s   21  1.00
 16665490.0000000000        -0.0000010826
  2495213.0000000000        -0.0000084209
   567850.7000000000        -0.0000442862
   160853.1000000000        -0.0001872071
    52481.8600000000        -0.0006819265
    18948.8500000000        -0.0022254850
     7391.6550000000        -0.0066196200
     3066.5170000000        -0.0181140000
     1337.9940000000        -0.0450662200
      608.7830000000        -0.0995544300
      286.8980000000        -0.1830558000
      139.1530000000        -0.2510577000
       68.4945500000        -0.1703417000
       31.6010800000         0.1900077000
       15.9915800000         0.5507048000
        8.0565100000         0.3642532000
        3.6903290000         0.0486897700
        1.7629020000        -0.0037999930
        0.8012690000        -0.0003156308
        0.1842430000        -0.0002430411
        0.0817930000         0.0001553645
 s   21  1.00
 16665490.0000000000         0.0000002390
  2495213.0000000000         0.0000018600
   567850.7000000000         0.0000097726
   160853.1000000000         0.0000413762
    52481.8600000000         0.0001505588
    18948.8500000000         0.0004932175
     7391.6550000000         0.0014694670
     3066.5170000000         0.0040714870
     1337.9940000000         0.0103009100
      608.7830000000         0.0238140800
      286.8980000000         0.0470700800
      139.1530000000         0.0742445000
       68.4945500000         0.0565765700
       31.6010800000        -0.0976086200
       15.9915800000        -0.3856399000
        8.0565100000        -0.3540312000
        3.6903290000         0.2983959000
        1.7629020000         0.6861809000
        0.8012690000         0.3150989000
        0.1842430000         0.0139456400
        0.0817930000        -0.0036116400
 s   21  1.00
 16665490.0000000000        -0.0000000482
  2495213.0000000000        -0.0000003754
   567850.7000000000        -0.0000019727
   160853.1000000000        -0.0000083500
    52481.8600000000        -0.0000303954
    18948.8500000000        -0.0000995301
     7391.6550000000        -0.0002967188
     3066.5170000000        -0.0008217293
     1337.9940000000        -0.0020813770
      608.7830000000        -0.0048111490
      286.8980000000        -0.0095376830
      139.1530000000        -0.0150735100
       68.4945500000        -0.0116108800
       31.6010800000         0.0203271600
       15.9915800000         0.0832740300
        8.0565100000         0.0795312500
        3.6903290000        -0.0790152400
        1.7629020000        -0.2054312000
        0.8012690000        -0.1985134000
        0.1842430000         0.2627133000
        0.0817930000         0.5794031000
 s   21  1.00
 16665490.0000000000        -0.0000000888
  2495213.0000000000        -0.0000007032
   567850.7000000000        -0.0000036014
   160853.1000000000        -0.0000157687
    52481.8600000000        -0.0000549973
    18948.8500000000        -0.0001897055
     7391.6550000000        -0.0005311656
     3066.5170000000        -0.0015845930
     1337.9940000000        -0.0036713160
      608.7830000000        -0.0094588930
      286.8980000000        -0.0163013400
      139.1530000000        -0.0314540200
       68.4945500000        -0.0144471200
       31.6010800000         0.0203785600
       15.9915800000         0.1997307000
        8.0565100000         0.0947592600
        3.6903290000        -0.0793539800
        1.7629020000        -0.7591353000
        0.8012690000         0.2365079000
        0.1842430000         1.4226040000
        0.0817930000        -0.3066203000
 s   21  1.00
 16665490.0000000000        -0.0000001849
  2495213.0000000000        -0.0000014619
   567850.7000000000        -0.0000075105
   160853.1000000000        -0.0000327499
    52481.8600000000        -0.0001148239
    18948.8500000000        -0.0003935903
     7391.6550000000        -0.0011106170
     3066.5170000000        -0.0032841740
     1337.9940000000        -0.0076972350
      608.7830000000        -0.0195901300
      286.8980000000        -0.0344471200
      139.1530000000        -0.0650717600
       68.4945500000        -0.0326941600
       31.6010800000         0.0473891500
       15.9915800000         0.4333712000
        8.0565100000         0.3189521000
        3.6903290000        -0.7281955000
        1.7629020000        -1.6631160000
        0.8012690000         2.5132670000
        0.1842430000        -0.3736861000
        0.0817930000        -1.4791020000
 s   21  1.00
 16665490.0000000000        -0.0000001981
  2495213.0000000000        -0.0000014462
   567850.7000000000        -0.0000083263
   160853.1000000000        -0.0000311938
    52481.8600000000        -0.0001320842
    18948.8500000000        -0.0003585362
     7391.6550000000        -0.0013339960
     3066.5170000000        -0.0028247280
     1337.9940000000        -0.0098063330
      608.7830000000        -0.0152932300
      286.8980000000        -0.0495657300
      139.1530000000        -0.0358346800
       68.4945500000        -0.1044906000
       31.6010800000         0.2105854000
       15.9915800000         0.1646732000
        8.0565100000         1.1505130000
        3.6903290000        -3.4837320000
        1.7629020000         2.5166360000
        0.8012690000         0.4429064000
        0.1842430000        -3.4043100000
        0.0817930000         4.6278500000
 s    1  1.00
        0.0353030000         1.0000000000
 p   16  1.00
    48218.4100000000         0.0000110000
    11420.5500000000         0.0000970000
     3713.5690000000         0.0005690000
     1423.7620000000         0.0025890000
      606.6041000000         0.0097420000
      278.2564000000         0.0309300000
      134.8449000000         0.0825300000
       68.1225400000         0.1777580000
       35.4008800000         0.2922250000
       18.7902900000         0.3303490000
       10.0835600000         0.2068630000
        5.3461200000         0.0527930000
        2.7752280000         0.0017180000
        1.4075640000        -0.0017010000
        0.6872130000        -0.0009760000
        0.2468220000        -0.0000540000
 p   17  1.00
    48218.4100000000        -0.0000040000
    11420.5500000000        -0.0000350000
     3713.5690000000        -0.0002060000
     1423.7620000000        -0.0009410000
      606.6041000000        -0.0035560000
      278.2564000000        -0.0114610000
      134.8449000000        -0.0313090000
       68.1225400000        -0.0701390000
       35.4008800000        -0.1205620000
       18.7902900000        -0.1435520000
       10.0835600000        -0.0403270000
        5.3461200000         0.2084660000
        2.7752280000         0.4087240000
        1.4075640000         0.3682010000
        0.6872130000         0.1596530000
        0.2468220000         0.0159550000
        0.0962200000        -0.0016810000
 p   17  1.00
    48218.4100000000         0.0000010000
    11420.5500000000         0.0000070000
     3713.5690000000         0.0000400000
     1423.7620000000         0.0001820000
      606.6041000000         0.0006970000
      278.2564000000         0.0022200000
      134.8449000000         0.0061630000
       68.1225400000         0.0136310000
       35.4008800000         0.0240330000
       18.7902900000         0.0278620000
       10.0835600000         0.0079750000
        5.3461200000        -0.0511330000
        2.7752280000        -0.0923050000
        1.4075640000        -0.1064580000
        0.6872130000         0.0037380000
        0.2468220000         0.3105410000
        0.0962200000         0.5419030000
 p   17  1.00
    48218.4100000000         0.0000020000
    11420.5500000000         0.0000130000
     3713.5690000000         0.0000790000
     1423.7620000000         0.0003490000
      606.6041000000         0.0013730000
      278.2564000000         0.0042610000
      134.8449000000         0.0121460000
       68.1225400000         0.0260640000
       35.4008800000         0.0479070000
       18.7902900000         0.0528290000
       10.0835600000         0.0215750000
        5.3461200000        -0.1177830000
        2.7752280000        -0.1883970000
        1.4075640000        -0.2019160000
        0.6872130000         0.1737430000
        0.2468220000         0.6368480000
        0.0962200000         0.3515180000
 p   17  1.00
    48218.4100000000         0.0000030000
    11420.5500000000         0.0000250000
     3713.5690000000         0.0001630000
     1423.7620000000         0.0006760000
      606.6041000000         0.0028080000
      278.2564000000         0.0082550000
      134.8449000000         0.0249460000
       68.1225400000         0.0501600000
       35.4008800000         0.1002890000
       18.7902900000         0.1023190000
       10.0835600000         0.0772410000
        5.3461200000        -0.3844490000
        2.7752280000        -0.4513540000
        1.4075640000        -0.0947780000
        0.6872130000         1.1731180000
        0.2468220000        -0.0541330000
        0.0962200000        -0.7282440000
 p   17  1.00
    48218.4100000000         0.0000040000
    11420.5500000000         0.0000370000
     3713.5690000000         0.0001900000
     1423.7620000000         0.0009780000
      606.6041000000         0.0033080000
      278.2564000000         0.0119800000
      134.8449000000         0.0292070000
       68.1225400000         0.0751220000
       35.4008800000         0.1078350000
       18.7902900000         0.2073790000
       10.0835600000         0.0604060000
        5.3461200000        -0.8949770000
        2.7752280000        -0.5584020000
        1.4075640000         1.8997060000
        0.6872130000        -0.5022240000
        0.2468220000        -1.1824130000
        0.0962200000         1.0445070000
 p    1  1.00
        0.0370370000         1.0000000000
 d   10  1.00
      527.8860000000         0.0002560000
      158.7330000000         0.0023780000
       61.5556000000         0.0127220000
       26.8834000000         0.0450120000
       12.5175000000         0.1171960000
        6.0697700000         0.2185550000
        2.9583190000         0.2914480000
        1.4141220000         0.2971380000
        0.6533290000         0.2360920000
        0.2866920000         0.1314440000
 d   10  1.00
      527.8860000000        -0.0003160000
      158.7330000000        -0.0029580000
       61.5556000000        -0.0158770000
       26.8834000000        -0.0568640000
       12.5175000000        -0.1535840000
        6.0697700000        -0.2811390000
        2.9583190000        -0.2685180000
        1.4141220000         0.0231300000
        0.6533290000         0.3566200000
        0.2866920000         0.4184700000
 d   10  1.00
      527.8860000000         0.0003790000
      158.7330000000         0.0035730000
       61.5556000000         0.0192290000
       26.8834000000         0.0699030000
       12.5175000000         0.1993800000
        6.0697700000         0.3488480000
        2.9583190000         0.0513940000
        1.4141220000        -0.5596790000
        0.6533290000        -0.3845810000
        0.2866920000         0.4389250000
 d   10  1.00
      527.8860000000        -0.0005930000
      158.7330000000        -0.0051060000
       61.5556000000        -0.0299220000
       26.8834000000        -0.1032930000
       12.5175000000        -0.3595680000
        6.0697700000        -0.4128070000
        2.9583190000         0.7476890000
        1.4141220000         0.5425150000
        0.6533290000        -0.9777060000
        0.2866920000        -0.0886030000
 d    1  1.00
        0.1150140000         1.0000000000
 f    1  1.00
        7.7344000000         1.0000000000
 f    1  1.00
        2.3909000000         1.0000000000
 f    1  1.00
        0.7391000000         1.0000000000
 g    1  1.00
        6.0075000000         1.0000000000
 g    1  1.00
        1.7760000000         1.0000000000
 h    1  1.00
        3.7909000000         1.0000000000

  2 0
 s    3  1.00
       82.6400000000         0.0020060000
       12.4100000000         0.0153430000
        2.8240000000         0.0755790000
 s    1  1.00
        0.7977000000         1.0000000000
 s    1  1.00
        0.2581000000         1.0000000000
 s    1  1.00
        0.0898900000         1.0000000000
 p    1  1.00
        2.2920000000         1.0000000000
 p    1  1.00
        0.8380000000         1.0000000000
 p    1  1.00
        0.2920000000         1.0000000000
 d    1  1.00
        2.0620000000         1.0000000000
 d    1  1.00
        0.6620000000         1.0000000000
 f    1  1.00
        1.3970000000         1.0000000000

[5D]
[9G]

[MO]
 Sym= A
 Ene= -3.28940083454939327e+02
 Spin= Alpha
 Occup=  2.00000000000000000e+00
  1  9.77134441985660684e-01
  2 -2.12552698009785018e-01
  3 -6.88594705077183759e-04
  4 -3.39833670966500727e-04
  5  6.84159067582980872e-05
  6 -1.99638519045730795e-04
  7  4.79636272759882335e-05
  8 -2.55697939447204197e-06
  9  2.73665997301126634e-06
 10  3.83132401665597783e-06
 11 -4.37865601495142976e-06
 12 -6.56986296123389293e-05
 13 -9.19780813479790724e-05
 14  1.05117805464495100e-04
 15 -1.45064812722824456e-04
 16 -2.03090737808903283e-04
 17  2.32103698159325108e-04
 18  1.04715466841380796e-04
 19  1.46601653641818353e-04
 20 -1.67544746163211615e-04
 21 -6.50384690851007151e-05
 22 -9.10538566615482685e-05
 23  1.04061549104321629e-04
 24  7.89623611972828585e-06
 25  1.10547305900235539e-05
 26 -1.26339776114047173e-05
 27  3.92627585644203460e-07
 28  5.49678616980855833e-07
 29 -6.28204142522595682e-07
 30 -9.52436935935504249e-06
 31  2.44395450435261586e-05
 32  3.42153630414401144e-05
 33  7.33186361829105069e-06
 34 -2.13846023467598428e-05
 35 -2.91157369834501461e-06
 36  7.47110251219425868e-06
 37  1.04595435150263300e-05
 38  2.24133081545506095e-06
 39 -6.53721490857860242e-06
 40  5.92268395594404404e-06
 41 -1.51976148110524140e-05
 42 -2.12766607279388948e-05
 43 -4.55928447709946965e-06
 44  1.32979131255218640e-05
 45  2.48279868821314068e-06
 46 -6.37086475686836538e-06
 47 -8.91921066230480736e-06
 48 -1.91125945046321425e-06
 49  5.57450674757381121e-06
 50 -4.80942041261418676e-07
 51  1.23409791454309722e-06
 52  1.72773707887979409e-06
 53  3.70229378037895904e-07
 54 -1.07983569129879066e-06
 55  6.63824242636509426e-07
 56  9.83835019483780205e-07
 57  1.37736902887042739e-06
 58  6.56420473308015610e-07
 59 -1.91455971874915749e-06
 60 -8.51402855225662912e-07
 61  2.54025116196204618e-07
 62 -1.18980984492205566e-06
 63 -1.76338317654262846e-06
 64 -2.46873645270586756e-06
 65 -1.17653958929579324e-06
 66  3.43157383006478324e-06
 67  1.52601758600517784e-06
 68 -4.55303620709795461e-07
 69 -2.89405513677779293e-06
 70 -4.28919646552594620e-06
 71 -6.00487507467063992e-06
 72 -2.86177702637847693e-06
 73  8.34684966673852869e-06
 74  3.71183602659727745e-06
 75 -1.10746584361126393e-06
 76  2.66908374348713701e-07
 77  3.56112263546039373e-08
 78  4.98557146729065659e-08
 79  1.37754543346530484e-07
 80 -4.01784090615169062e-07
 81 -3.38077945328088025e-07
 82  1.00869158257883805e-07
 83  1.05910181647746617e-07
 84  8.22983844155035983e-08
 85  4.08057287065371959e-07
 86  5.44434223464788225e-08
 87  7.62208045049723583e-08
 88  2.10603148452633976e-07
 89 -6.14259165549841258e-07
 90 -5.16863410536254143e-07
 91  1.54211710371790989e-07
 92  1.61918582017795819e-07
 93  1.25820166388306867e-07
 94 -3.95187431606330210e-08
 95  2.38571644307698012e-08
 96  3.34000276665732263e-08
 97 -1.40828325898488915e-08
 98  4.10749224485054979e-08
 99  7.40787062107764231e-08
100 -2.21021712143065089e-08
101 -4.06912855732719302e-08
102 -3.16194981423275086e-08
103 -7.06770813931249915e-10
104  1.75086032308813529e-08
105 -1.04100492243643238e-06
106  2.88044846265746710e-04
107  2.50363312539562300e-05
108  2.90045009951239796e-05
109 -5.57756456693617064e-06
110 -7.80859040603837844e-06
111  8.92410341894253945e-06
112 -4.99084973346578149e-05
113 -6.98718963722329587e-05
114  7.98535977847864703e-05
115 -3.55074328410897888e-06
116 -4.97104062656301615e-06
117  5.68119003473033296e-06
118  2.12165414554156401e-06
119 -5.44416645684144992e-06
120 -7.62183308256189621e-06
121 -1.63324989977975412e-06
122  4.76364552653510945e-06
123  3.04515522719028085e-06
124 -7.81387049298141637e-06
125 -1.09394187640685314e-05
126 -2.34416105205024695e-06
127  6.83713636145345424e-06
128 -3.07372947637108036e-07
129 -4.55548902744859082e-07
130 -6.37768501056388083e-07
131 -3.03944857460677659e-07
132  8.86505780477760682e-07
133  3.94228223479639675e-07
134 -1.17622193845911546e-07
 Sym= A
 Ene= -4.09762485697761960e+01
 Spin= Alpha
 Occup=  2.00000000000000000e+00
  1  2.12698223328007030e-01
  2  9.77766630726567221e-01
  3  7.78326782018019282e-03
  4  6.27896390283065424e-03
  5 -4.50549850470517970e-03
  6  3.26358042407987351e-03
  7 -1.44106854733271625e-03
  8 -7.45498248145105223e-05
  9  3.72582186129639514e-03
 10  5.21615062033657911e-03
 11 -5.96131493535990032e-03
 12  8.92313031321310176e-04
 13  1.24923828749239053e-03
 14 -1.42770086952734429e-03
 15  4.80783144682781025e-03
 16  6.73096407045280405e-03
 17 -7.69253031943041392e-03
 18 -4.55832675851353380e-03
 19 -6.38165747313468226e-03
 20  7.29332280215462883e-03
 21  1.59608713054076802e-03
 22  2.23452201548245263e-03
 23 -2.55373942146564122e-03
 24 -4.59752012027972326e-04
 25 -6.43652819855223841e-04
 26  7.35603218044855647e-04
 27 -1.05701610955798119e-05
 28 -1.47982254207469420e-05
 29  1.69122574759090797e-05
 30  2.03147637497991799e-04
 31 -5.21277083023284431e-04
 32 -7.29787936268206814e-04
 33 -1.56383140138960044e-04
 34  4.56117454964947197e-04
 35 -4.13629824642067719e-05
 36  1.06137461149029868e-04
 37  1.48592435659225698e-04
 38  3.18412307744873449e-05
 39 -9.28702747945513006e-05
 40 -1.11987429022479513e-04
 41  2.87359877360185477e-04
 42  4.02303835863106012e-04
 43  8.62079689362488450e-05
 44 -2.51439895352768600e-04
 45 -1.39134685815340051e-04
 46  3.57019770910195142e-04
 47  4.99827683304109797e-04
 48  1.07105934353846882e-04
 49 -3.12392301086275852e-04
 50 -3.84881189024757845e-06
 51  9.87605584667544557e-06
 52  1.38264776109968210e-05
 53  2.96281629307319376e-06
 54 -8.64154868020338083e-06
 55  1.69380641598189434e-05
 56  2.51034238202593578e-05
 57  3.51447931087725052e-05
 58  1.67491504840437730e-05
 59 -4.88516898621909763e-05
 60 -2.17242990105662230e-05
 61  6.48167630156176287e-06
 62  4.52262012977263039e-07
 63  6.70283106832714260e-07
 64  9.38397999963956878e-07
 65  4.47219583570155426e-07
 66 -1.30438380216389734e-06
 67 -5.80059075508983845e-07
 68  1.73065370233966898e-07
 69  8.43213585674126810e-05
 70  1.24970285124381995e-04
 71  1.74958403378563178e-04
 72  8.33809106012297057e-05
 73 -2.43194306418185438e-04
 74 -1.08148274589032849e-04
 75  3.22671867246415958e-05
 76 -4.54610721705174504e-06
 77 -6.06546901514950633e-07
 78 -8.49165640757880016e-07
 79 -2.34629926533711241e-06
 80  6.84337293673108734e-06
 81  5.75830033846758141e-06
 82 -1.71805028336372619e-06
 83 -1.80391132310807875e-06
 84 -1.40174422027548663e-06
 85 -1.34459352579566320e-05
 86 -1.79397191333117143e-06
 87 -2.51156095975495725e-06
 88 -6.93960608632724426e-06
 89  2.02405141755307177e-05
 90  1.70312165210648817e-05
 91 -5.08144355063836635e-06
 92 -5.33539406133763510e-06
 93 -4.14591293659716829e-06
 94  6.73603457031083336e-06
 95 -4.06649125749859567e-06
 96 -5.69308780741796173e-06
 97  2.40044186957423844e-06
 98 -7.00128852607420886e-06
 99 -1.26268353781463802e-05
100  3.76735067911540617e-06
101  6.93589467594309602e-06
102  5.38959459566523597e-06
103  1.20470490997429626e-07
104 -2.98436932713603135e-06
105  1.38430466141502609e-04
106 -4.46931896266157275e-03
107  3.39799334365011290e-03
108 -7.35508992438363771e-06
109 -1.26284861643358855e-05
110 -1.76798832615687785e-05
111  2.02055798664575652e-05
112  4.75220516286853161e-04
113  6.65308673642116678e-04
114 -7.60352802033968157e-04
115 -3.81321505727545782e-04
116 -5.33850126211419889e-04
117  6.10114417734851410e-04
118 -3.52198910969611507e-06
119  9.03742821111326273e-06
120  1.26523933583959473e-05
121  2.71122363569063578e-06
122 -7.90774772131044976e-06
123  2.98253322204956880e-05
124 -7.65318416946464246e-05
125 -1.07144592591610903e-04
126 -2.29595643120048481e-05
127  6.69653663253620733e-05
128 -4.95842175253728058e-06
129 -7.34873403569164766e-06
130 -1.02882289429345740e-05
131 -4.90312111806522181e-06
132  1.43007630278734021e-05
133  6.35953634630185986e-06
134 -1.89743366583283718e-06
 Sym= A
 Ene= -3.57837046259942682e+01
 Spin= Alpha
 Occup=  2.00000000000000000e+00
  1  1.94687065504398245e-03
  2  8.58911544287061478e-03
  3 -1.21499500067169443e-03
  4 -1.16762042925661093e-02
  5  9.99687829322778998e-03
  6 -4.84635592552560938e-03
  7  3.32317729869425387e-03
  8  1.94206469058469681e-04
  9 -4.25599003277097654e-01
 10 -5.95838604381947246e-01
 11  6.80958404967459408e-01
 12 -3.58316895140114696e-03
 13 -5.01643653351619995e-03
 14  5.73307032074015215e-03
 15 -6.50791105892213877e-03
 16 -9.11107548978026989e-03
 17  1.04126576894823554e-02
 18  6.40609777179926634e-03
 19  8.96853688480065553e-03
 20 -1.02497564301068447e-02
 21 -2.14849650284139109e-03
 22 -3.00789510755021050e-03
 23  3.43759440335300809e-03
 24  6.14538764756393063e-04
 25  8.60354271405841184e-04
 26 -9.83262022980497218e-04
 27 -3.58857039309899221e-06
 28 -5.02399851510900838e-06
 29  5.74171265199628508e-06
 30 -2.62788207312415355e-04
 31  6.74314858058527736e-04
 32  9.44040802716398283e-04
 33  2.02294458849503828e-04
 34 -5.90025501900578379e-04
 35  1.31343561815286776e-04
 36 -3.37027741323387548e-04
 37 -4.71838837328064013e-04
 38 -1.01108322359684107e-04
 39  2.94899274623005810e-04
 40  1.68276575277601163e-04
 41 -4.31797894618060716e-04
 42 -6.04517052963774804e-04
 43 -1.29539368898504132e-04
 44  3.77823158073216413e-04
 45  2.92512813012050241e-04
 46 -7.50588233833825191e-04
 47 -1.05082352811648521e-03
 48 -2.25176471203563039e-04
 49  6.56764706126830512e-04
 50 -1.34862228007964145e-06
 51  3.46056699982524026e-06
 52  4.84479384350936366e-06
 53  1.03817019411160014e-06
 54 -3.02799627589085906e-06
 55 -4.85909375251177678e-05
 56 -7.20152477565113051e-05
 57 -1.00821346851830449e-04
 58 -4.80489935963545573e-05
 59  1.40142898057783169e-04
 60  6.23214109477246631e-05
 61 -1.85942570584802303e-05
 62  3.13192737593488788e-05
 63  4.64174053372270462e-05
 64  6.49843675140623683e-05
 65  3.09699638759198289e-05
 66 -9.03290613178392562e-05
 67 -4.01692461399662525e-05
 68  1.19849226453678767e-05
 69 -1.38226894177404837e-04
 70 -2.04862151148586856e-04
 71 -2.86807011884546604e-04
 72 -1.36685223623951493e-04
 73  3.98665234006453950e-04
 74  1.77286043415315610e-04
 75 -5.28951797669144493e-05
 76  2.82711962953770993e-05
 77  3.77197577472872494e-06
 78  5.28076608833904963e-06
 79  1.45910962444968673e-05
 80 -4.25573640743307139e-05
 81 -3.58095469481571979e-05
 82  1.06841599263746027e-05
 83  1.12181100612599461e-05
 84  8.71712528840917386e-06
 85  1.62025483721439194e-05
 86  2.16176278712259659e-06
 87  3.02646786491087218e-06
 88  8.36232539854423601e-06
 89 -2.43901156701461351e-05
 90 -2.05228638992489558e-05
 91  6.12321504875194634e-06
 92  6.42922803194120177e-06
 93  4.99588494598545572e-06
 94 -6.27429135249969288e-06
 95  3.78774046182676079e-06
 96  5.30283664823810629e-06
 97 -2.23589575872593574e-06
 98  6.52136265895192761e-06
 99  1.17612880646375916e-05
100 -3.50910562873482065e-06
101 -6.46045141811907841e-06
102 -5.02014726112361158e-06
103 -1.12212385895181205e-07
104  2.77979606495605473e-06
105 -2.26858342716058605e-04
106  4.34045095107421942e-03
107 -6.96607721637797824e-03
108 -5.58907573445684283e-05
109  2.26262257570559631e-04
110  3.16767160280744648e-04
111 -3.62019612868989436e-04
112  8.42864494608658737e-06
113  1.18001072119230032e-05
114 -1.34858314655939757e-05
115  8.42822230060044815e-04
116  1.17995112351053648e-03
117 -1.34851556857849115e-03
118 -9.82105271591292522e-05
119  2.52008328726179324e-04
120  3.52811660392070693e-04
121  7.56024986112193689e-05
122 -2.20507287537750196e-04
123 -1.53476753594019156e-04
124  3.93821534878436772e-04
125  5.51350150140551398e-04
126  1.18146461543959156e-04
127 -3.44593844025111167e-04
128  6.58348481810833587e-05
129  9.75719583941050083e-05
130  1.36600741857217760e-04
131  6.51005800183750686e-05
132 -1.89876691741121614e-04
133 -8.44379807626822272e-05
134  2.51929713620327523e-05
 Sym= A
 Ene= -3.57651876561774102e+01
 Spin= Alpha
 Occup=  2.00000000000000000e+00
  1 -2.94334230126705649e-12
  2 -1.12974733621080317e-11
  3 -1.07401972094794711e-11
  4 -2.27891909467727382e-11
  5  1.77717046488024304e-11
  6 -1.46476231394597467e-11
  7  4.77461849469073442e-12
  8  3.09120971189074568e-13
  9  9.03575607845809259e-01
 10 -3.19774968498082179e-01
 11  2.84931657681747608e-01
 12  6.63060227699407111e-03
 13 -2.34656693029167964e-03
 14  2.09088037190815774e-03
 15  4.21015549741964089e-04
 16 -1.48997222450084039e-04
 17  1.32762195032939994e-04
 18 -3.88867359428827727e-04
 19  1.37619991712171461e-04
 20 -1.22624650962924566e-04
 21  1.00870739000238853e-04
 22 -3.56981162752123752e-05
 23  3.18083800572232730e-05
 24 -9.67300117078848825e-05
 25  3.42327053475261143e-05
 26 -3.05026425434878891e-05
 27  1.19622223656872564e-05
 28 -4.23342461379404534e-06
 29  3.77214231692479146e-06
 30 -1.16366553215289920e-04
 31 -1.71064642018852917e-04
 32  1.34186223647554692e-04
 33  1.99134249643092800e-04
 34  1.39297959727789080e-04
 35  2.13409961234226644e-04
 36  3.13723298252183873e-04
 37 -2.46090267169534187e-04
 38 -3.65201435761981568e-04
 39 -2.55464923613984833e-04
 40 -2.00305696005621546e-05
 41 -2.94459395592821183e-05
 42  2.30979277495472495e-05
 43  3.42776537729845446e-05
 44  2.39778324151493062e-05
 45  1.85282476395490133e-04
 46  2.72374490301638731e-04
 47 -2.13655511498389149e-04
 48 -3.17067797804471228e-04
 49 -2.21794583197792967e-04
 50 -1.70388583516661032e-05
 51 -2.50479727896181655e-05
 52  1.96480856278199309e-05
 53  2.91580372504156437e-05
 54  2.03965677100175654e-05
 55  6.27254605186496967e-05
 56  2.49263747198300942e-05
 57 -1.07531521096330851e-04
 58 -1.79483417058948902e-04
 59 -8.69366199701561003e-05
 60  1.33575448062346202e-06
 61  1.35643957548064022e-04
 62 -2.98937499569433450e-05
 63 -1.18794314865621336e-05
 64  5.12474576896807370e-05
 65  8.55383494654920600e-05
 66  4.14323236836197149e-05
 67 -6.36594786204322143e-07
 68 -6.46453051782415391e-05
 69  1.73490024751800945e-05
 70  6.89429338490162330e-06
 71 -2.97417458507970397e-05
 72 -4.96426541432069921e-05
 73 -2.40454769587082340e-05
 74  3.69451794172274020e-07
 75  3.75172598474686155e-05
 76 -1.23199946237012584e-06
 77  5.42483594777140496e-06
 78  9.76167109696971999e-06
 79  1.76121509697114840e-05
 80  2.47522370421882085e-06
 81 -2.53458046857803490e-06
 82 -2.19494336205519502e-05
 83 -9.27248333591195205e-06
 84  6.76207720705838686e-06
 85  1.77641862920175411e-06
 86 -7.82206465968475399e-06
 87 -1.40753421729879282e-05
 88 -2.53949399067236908e-05
 89 -3.56902224415940086e-06
 90  3.65460853927283130e-06
 91  3.16488628070574955e-05
 92  1.33699829702391121e-05
 93 -9.75023124649981328e-06
 94  1.13890244115529595e-06
 95  1.88933148817629904e-06
 96  1.00949310160681959e-06
 97  2.59500037505695399e-06
 98 -1.36691947123075761e-06
 99 -1.55601450542761019e-06
100 -5.14117865061528924e-06
101 -3.70034813346029885e-06
102  3.17072095391981136e-06
103  2.00404622010160600e-06
104  6.65121069577909380e-07
105  3.73065408286133874e-13
106  2.00118710422278463e-11
107 -1.53033827053121661e-11
108 -2.37529299298603689e-12
109  1.83508649144505570e-04
110 -6.49436222962456394e-05
111  5.78672372873019020e-05
112 -1.31583935577644142e-04
113  4.65674876256810751e-05
114 -4.14933997078286817e-05
115  1.46872804712305827e-05
116 -5.19781815654701623e-06
117  4.63145399902149615e-06
118  6.86575161091976461e-05
119  1.00929976805869191e-04
120 -7.91713110286753404e-05
121 -1.17491344317641297e-04
122 -8.21872926229724477e-05
123 -1.17919706654712041e-05
124 -1.73347866167781338e-05
125  1.35977223397415292e-05
126  2.01792122726661816e-05
127  1.41157184022525893e-05
128  2.56841340972737312e-05
129  1.02065787397600171e-05
130 -4.40308281583588694e-05
131 -7.34929013392722420e-05
132 -3.55978542509634491e-05
133  5.46949849502846078e-07
134  5.55420002895644111e-05
 Sym= A
 Ene= -3.57651876561710580e+01
 Spin= Alpha
 Occup=  2.00000000000000000e+00
  1 -6.99481069352519908e-12
  2 -3.35672424809012346e-11
  3  8.29946573064474102e-12
  4  1.18922418874939699e-11
  5 -1.17611476352819334e-11
  6  8.51792269572930170e-12
  7 -3.03722989809797726e-12
  8 -4.84261861526019530e-13
  9  4.79834701356565141e-02
 10  7.36614676960742787e-01
 11  6.74527511224946696e-01