[Molden Format]
[Atoms] (AU)
MN   1   25         0.000000000000       0.000000000000       0.000000000000
[GTO]
  1 0
 s   21  1.00
 12210500.0000000000         0.0000020185
  1828157.0000000000         0.0000156964
   416030.3000000000         0.0000825785
   117843.6000000000         0.0003488107
    38448.1400000000         0.0012704140
    13881.7100000000         0.0041339050
     5415.0020000000         0.0122436600
     2246.4600000000         0.0330604000
      980.1463000000         0.0801987700
      445.8952000000         0.1671550000
      210.0558000000         0.2743977000
      101.8046000000         0.2963690000
       50.0112600000         0.1592852000
       22.9393900000         0.0568181800
       11.5226400000         0.0827899000
        5.7763380000         0.0584062800
        2.6259590000         0.0073430470
        1.2603220000        -0.0002934793
        0.5771300000        -0.0000456225
        0.1365820000        -0.0000099350
        0.0635350000         0.0000239114
 s   21  1.00
 12210500.0000000000        -0.0000009634
  1828157.0000000000        -0.0000074937
   416030.3000000000        -0.0000394100
   117843.6000000000        -0.0001666155
    38448.1400000000        -0.0006069041
    13881.7100000000        -0.0019811080
     5415.0020000000        -0.0058934860
     2246.4600000000        -0.0161384900
      980.1463000000        -0.0401892900
      445.8952000000        -0.0890342300
      210.0558000000        -0.1646993000
      101.8046000000        -0.2288840000
       50.0112600000        -0.1560684000
       22.9393900000         0.1882585000
       11.5226400000         0.5512725000
        5.7763380000         0.3755111000
        2.6259590000         0.0506160700
        1.2603220000        -0.0049261930
        0.5771300000        -0.0006126838
        0.1365820000        -0.0002821975
        0.0635350000         0.0003009192
 s   21  1.00
 12210500.0000000000         0.0000002317
  1828157.0000000000         0.0000018036
   416030.3000000000         0.0000094762
   117843.6000000000         0.0000401255
    38448.1400000000         0.0001459870
    13881.7100000000         0.0004782368
     5415.0020000000         0.0014240630
     2246.4600000000         0.0039428070
      980.1463000000         0.0099524110
      445.8952000000         0.0229242000
      210.0558000000         0.0450163800
      101.8046000000         0.0704874200
       50.0112600000         0.0529106400
       22.9393900000        -0.0898395100
       11.5226400000        -0.3626155000
        5.7763380000        -0.3621266000
        2.6259590000         0.2656979000
        1.2603220000         0.6892091000
        0.5771300000         0.3337072000
        0.1365820000         0.0159467700
        0.0635350000        -0.0046145460
 s   21  1.00
 12210500.0000000000        -0.0000000513
  1828157.0000000000        -0.0000003992
   416030.3000000000        -0.0000020971
   117843.6000000000        -0.0000088814
    38448.1400000000        -0.0000323070
    13881.7100000000        -0.0001058611
     5415.0020000000        -0.0003151614
     2246.4600000000        -0.0008730066
      980.1463000000        -0.0022035280
      445.8952000000        -0.0050817610
      210.0558000000        -0.0099888340
      101.8046000000        -0.0157096100
       50.0112600000        -0.0118395500
       22.9393900000         0.0203103900
       11.5226400000         0.0859305500
        5.7763380000         0.0889742700
        2.6259590000        -0.0767889100
        1.2603220000        -0.2261750000
        0.5771300000        -0.2271869000
        0.1365820000         0.3003127000
        0.0635350000         0.5953419000
 s   21  1.00
 12210500.0000000000        -0.0000001017
  1828157.0000000000        -0.0000008111
   416030.3000000000        -0.0000041163
   117843.6000000000        -0.0000182390
    38448.1400000000        -0.0000626592
    13881.7100000000        -0.0002200741
     5415.0020000000        -0.0006024678
     2246.4600000000        -0.0018430000
      980.1463000000        -0.0041279380
      445.8952000000        -0.0110047100
      210.0558000000        -0.0179012000
      101.8046000000        -0.0367622700
       50.0112600000        -0.0130142700
       22.9393900000         0.0147815300
       11.5226400000         0.2391713000
        5.7763380000         0.0896495700
        2.6259590000        -0.0129962700
        1.2603220000        -1.0513300000
        0.5771300000         0.4478536000
        0.1365820000         1.8048060000
        0.0635350000        -1.0710260000
 s   21  1.00
 12210500.0000000000        -0.0000001642
  1828157.0000000000        -0.0000013142
   416030.3000000000        -0.0000066328
   117843.6000000000        -0.0000296042
    38448.1400000000        -0.0001007673
    13881.7100000000        -0.0003579039
     5415.0020000000        -0.0009666897
     2246.4600000000        -0.0030051790
      980.1463000000        -0.0066058160
      445.8952000000        -0.0180382000
      210.0558000000        -0.0285308400
      101.8046000000        -0.0612441300
       50.0112600000        -0.0189379100
       22.9393900000         0.0188865300
       11.5226400000         0.4329357000
        5.7763380000         0.1661622000
        2.6259590000        -0.3401427000
        1.2603220000        -2.0393200000
        0.5771300000         2.7946610000
        0.1365820000        -0.7303582000
        0.0635350000        -1.4080030000
 s   21  1.00
 12210500.0000000000        -0.0000002002
  1828157.0000000000        -0.0000014788
   416030.3000000000        -0.0000083724
   117843.6000000000        -0.0000320889
    38448.1400000000        -0.0001321413
    13881.7100000000        -0.0003714493
     5415.0020000000        -0.0013264560
     2246.4600000000        -0.0029512650
      980.1463000000        -0.0096557620
      445.8952000000        -0.0161691900
      210.0558000000        -0.0477664700
      101.8046000000        -0.0404921200
       50.0112600000        -0.0938992500
       22.9393900000         0.1920182000
       11.5226400000         0.2440487000
        5.7763380000         0.8589060000
        2.6259590000        -2.7931450000
        1.2603220000         1.5640690000
        0.5771300000         1.1184620000
        0.1365820000        -4.0546640000
        0.0635350000         5.4620540000
 s    1  1.00
        0.0285210000         1.0000000000
 p   17  1.00
    35005.1200000000         0.0000110000
     8279.4620000000         0.0000980000
     2688.4650000000         0.0005720000
     1029.4900000000         0.0026040000
      438.0708000000         0.0097790000
      200.6153000000         0.0309380000
       97.0076900000         0.0821940000
       48.8705200000         0.1761490000
       25.2928100000         0.2891330000
       13.3538200000         0.3309560000
        7.1317860000         0.2122180000
        3.7643650000         0.0552270000
        1.9462650000         0.0012070000
        0.9854550000        -0.0023550000
        0.4818650000        -0.0013200000
        0.1892120000        -0.0000940000
        0.0779800000        -0.0000070000
 p   17  1.00
    35005.1200000000        -0.0000040000
     8279.4620000000        -0.0000340000
     2688.4650000000        -0.0001990000
     1029.4900000000        -0.0009070000
      438.0708000000        -0.0034250000
      200.6153000000        -0.0109850000
       97.0076900000        -0.0298560000
       48.8705200000        -0.0663660000
       25.2928100000        -0.1135040000
       13.3538200000        -0.1379910000
        7.1317860000        -0.0493550000
        3.7643650000         0.1912420000
        1.9462650000         0.4023550000
        0.9854550000         0.3821160000
        0.4818650000         0.1681990000
        0.1892120000         0.0179050000
        0.0779800000        -0.0009580000
 p   17  1.00
    35005.1200000000        -0.0000010000
     8279.4620000000        -0.0000080000
     2688.4650000000        -0.0000460000
     1029.4900000000        -0.0002080000
      438.0708000000        -0.0007920000
      200.6153000000        -0.0025220000
       97.0076900000        -0.0069280000
       48.8705200000        -0.0152920000
       25.2928100000        -0.0266110000
       13.3538200000        -0.0319780000
        7.1317860000        -0.0112220000
        3.7643650000         0.0549880000
        1.9462650000         0.1104650000
        0.9854550000         0.1281620000
        0.4818650000        -0.0029800000
        0.1892120000        -0.3368240000
        0.0779800000        -0.5424410000
 p   17  1.00
    35005.1200000000         0.0000010000
     8279.4620000000         0.0000100000
     2688.4650000000         0.0000610000
     1029.4900000000         0.0002780000
      438.0708000000         0.0010520000
      200.6153000000         0.0033660000
       97.0076900000         0.0091930000
       48.8705200000         0.0204040000
       25.2928100000         0.0352770000
       13.3538200000         0.0429860000
        7.1317860000         0.0147830000
        3.7643650000        -0.0708510000
        1.9462650000        -0.1488630000
        0.9854550000        -0.1726610000
        0.4818650000        -0.0048570000
        0.1892120000         0.5718810000
        0.0779800000         0.5013280000
 p   17  1.00
    35005.1200000000         0.0000030000
     8279.4620000000         0.0000210000
     2688.4650000000         0.0001380000
     1029.4900000000         0.0005680000
      438.0708000000         0.0023680000
      200.6153000000         0.0068870000
       97.0076900000         0.0208050000
       48.8705200000         0.0412070000
       25.2928100000         0.0829490000
       13.3538200000         0.0823300000
        7.1317860000         0.0676490000
        3.7643650000        -0.2505870000
        1.9462650000        -0.3787840000
        0.9854550000        -0.3965170000
        0.4818650000         1.1501120000
        0.1892120000         0.3830850000
        0.0779800000        -0.8923280000
 p   17  1.00
    35005.1200000000        -0.0000030000
     8279.4620000000        -0.0000320000
     2688.4650000000        -0.0001650000
     1029.4900000000        -0.0008520000
      438.0708000000        -0.0028640000
      200.6153000000        -0.0103380000
       97.0076900000        -0.0249200000
       48.8705200000        -0.0639080000
       25.2928100000        -0.0917040000
       13.3538200000        -0.1688330000
        7.1317860000        -0.0457170000
        3.7643650000         0.4475430000
        1.9462650000         1.0445440000
        0.9854550000        -1.4857210000
        0.4818650000        -0.5306040000
        0.1892120000         1.8217180000
        0.0779800000        -1.0684500000
 p    1  1.00
        0.0316850000         1.0000000000
 d   10  1.00
      301.4270000000         0.0003610000
       90.3288000000         0.0032590000
       34.8337000000         0.0164190000
       14.9770000000         0.0547600000
        6.8498300000         0.1367270000
        3.2521700000         0.2424190000
        1.5430900000         0.3103760000
        0.7156410000         0.3021700000
        0.3193230000         0.2135730000
        0.1344280000         0.0890940000
 d   10  1.00
      301.4270000000        -0.0003670000
       90.3288000000        -0.0033310000
       34.8337000000        -0.0168130000
       14.9770000000        -0.0569290000
        6.8498300000        -0.1457700000
        3.2521700000        -0.2466730000
        1.5430900000        -0.2342270000
        0.7156410000         0.0233200000
        0.3193230000         0.3875770000
        0.1344280000         0.4676950000
 d   10  1.00
      301.4270000000        -0.0005810000
       90.3288000000        -0.0053040000
       34.8337000000        -0.0270190000
       14.9770000000        -0.0940670000
        6.8498300000        -0.2469380000
        3.2521700000        -0.3420510000
        1.5430900000        -0.0146210000
        0.7156410000         0.6120700000
        0.3193230000         0.3201120000
        0.1344280000        -0.5609790000
 d   10  1.00
      301.4270000000        -0.0007460000
       90.3288000000        -0.0068580000
       34.8337000000        -0.0350360000
       14.9770000000        -0.1265920000
        6.8498300000        -0.3598640000
        3.2521700000        -0.3065310000
        1.5430900000         0.7526320000
        0.7156410000         0.4176590000
        0.3193230000        -1.0728320000
        0.1344280000         0.2000430000
 d    1  1.00
        0.0515700000         1.0000000000
 f    1  1.00
        4.4646000000         1.0000000000
 f    1  1.00
        1.3133000000         1.0000000000
 f    1  1.00
        0.3863000000         1.0000000000
 g    1  1.00
        3.1668000000         1.0000000000
 g    1  1.00
        0.8651000000         1.0000000000
 h    1  1.00
        2.0003000000         1.0000000000

[5D]
[9G]

[MO]
 Sym= Ag
 Ene= -2.40359887205745196e+02
 Spin= Alpha
 Occup=  1.00000000000000000e+00
  1  9.88497524598940691e-01
  2 -1.51240811482225290e-01
  3 -3.59074958165899946e-04
  4  7.35965386672363635e-05
  5 -3.61864464608335762e-05
  6  3.09813975798136761e-05
  7 -3.36444915478902666e-05
  8  5.33158428436839503e-06
  9  0.00000000000000000e+00
 10  0.00000000000000000e+00
 11  0.00000000000000000e+00
 12  0.00000000000000000e+00
 13  0.00000000000000000e+00
 14  0.00000000000000000e+00
 15  0.00000000000000000e+00
 16  0.00000000000000000e+00
 17  0.00000000000000000e+00
 18  0.00000000000000000e+00
 19  0.00000000000000000e+00
 20  0.00000000000000000e+00
 21  0.00000000000000000e+00
 22  0.00000000000000000e+00
 23  0.00000000000000000e+00
 24  0.00000000000000000e+00
 25  0.00000000000000000e+00
 26  0.00000000000000000e+00
 27  0.00000000000000000e+00
 28  0.00000000000000000e+00
 29  0.00000000000000000e+00
 30  3.21858595842825718e-07
 31  0.00000000000000000e+00
 32  0.00000000000000000e+00
 33  4.22214415724031089e-16
 34  0.00000000000000000e+00
 35 -2.16379149435943991e-06
 36  0.00000000000000000e+00
 37  0.00000000000000000e+00
 38  1.74839244683208237e-16
 39  0.00000000000000000e+00
 40  3.98112931196871872e-08
 41  0.00000000000000000e+00
 42  0.00000000000000000e+00
 43 -2.01063857317914463e-16
 44  0.00000000000000000e+00
 45 -2.61176318189303179e-06
 46  0.00000000000000000e+00
 47  0.00000000000000000e+00
 48 -3.60763994357892148e-17
 49  0.00000000000000000e+00
 50  6.29088850556494334e-07
 51  0.00000000000000000e+00
 52  0.00000000000000000e+00
 53 -4.77907329224899094e-16
 54  0.00000000000000000e+00
 55  0.00000000000000000e+00
 56  0.00000000000000000e+00
 57  0.00000000000000000e+00
 58  0.00000000000000000e+00
 59  0.00000000000000000e+00
 60  0.00000000000000000e+00
 61  0.00000000000000000e+00
 62  0.00000000000000000e+00
 63  0.00000000000000000e+00
 64  0.00000000000000000e+00
 65  0.00000000000000000e+00
 66  0.00000000000000000e+00
 67  0.00000000000000000e+00
 68  0.00000000000000000e+00
 69  0.00000000000000000e+00
 70  0.00000000000000000e+00
 71  0.00000000000000000e+00
 72  0.00000000000000000e+00
 73  0.00000000000000000e+00
 74  0.00000000000000000e+00
 75  0.00000000000000000e+00
 76  8.30392093583371134e-09
 77  0.00000000000000000e+00
 78  0.00000000000000000e+00
 79  1.12024983509869887e-16
 80  0.00000000000000000e+00
 81  0.00000000000000000e+00
 82  0.00000000000000000e+00
 83 -4.81456690059293863e-08
 84  0.00000000000000000e+00
 85  5.84744832277322109e-09
 86  0.00000000000000000e+00
 87  0.00000000000000000e+00
 88  3.61532868236609131e-17
 89  0.00000000000000000e+00
 90  0.00000000000000000e+00
 91  0.00000000000000000e+00
 92 -3.34516175750813143e-08
 93  0.00000000000000000e+00
 94  0.00000000000000000e+00
 95  0.00000000000000000e+00
 96  0.00000000000000000e+00
 97  0.00000000000000000e+00
 98  0.00000000000000000e+00
 99  0.00000000000000000e+00
100  0.00000000000000000e+00
101  0.00000000000000000e+00
102  0.00000000000000000e+00
103  0.00000000000000000e+00
104  0.00000000000000000e+00
 Sym= Ag
 Ene= -2.89626571119222938e+01
 Spin= Alpha
 Occup=  1.00000000000000000e+00
  1  1.51380528466286024e-01
  2  9.88919859517483069e-01
  3  9.83340916104001768e-03
  4  7.34492045477398194e-03
  5 -3.88007565700482834e-03
  6  2.90804397273063033e-03
  7 -3.70895376377443960e-03
  8 -1.04751537133368085e-04
  9  0.00000000000000000e+00
 10  0.00000000000000000e+00
 11  0.00000000000000000e+00
 12  0.00000000000000000e+00
 13  0.00000000000000000e+00
 14  0.00000000000000000e+00
 15  0.00000000000000000e+00
 16  0.00000000000000000e+00
 17  0.00000000000000000e+00
 18  0.00000000000000000e+00
 19  0.00000000000000000e+00
 20  0.00000000000000000e+00
 21  0.00000000000000000e+00
 22  0.00000000000000000e+00
 23  0.00000000000000000e+00
 24  0.00000000000000000e+00
 25  0.00000000000000000e+00
 26  0.00000000000000000e+00
 27  0.00000000000000000e+00
 28  0.00000000000000000e+00
 29  0.00000000000000000e+00
 30  3.75413601788740590e-04
 31  0.00000000000000000e+00
 32  0.00000000000000000e+00
 33 -2.32156554105421073e-16
 34  0.00000000000000000e+00
 35 -4.96249582890959714e-04
 36  0.00000000000000000e+00
 37  0.00000000000000000e+00
 38  2.65845115432071851e-16
 39  0.00000000000000000e+00
 40 -1.51724557876272657e-04
 41  0.00000000000000000e+00
 42  0.00000000000000000e+00
 43  2.27357586620668737e-17
 44  0.00000000000000000e+00
 45 -4.05616681680039972e-04
 46  0.00000000000000000e+00
 47  0.00000000000000000e+00
 48 -2.58529497081938602e-16
 49  0.00000000000000000e+00
 50  7.79238263391298866e-05
 51  0.00000000000000000e+00
 52  0.00000000000000000e+00
 53 -2.92799460403595777e-16
 54  0.00000000000000000e+00
 55  0.00000000000000000e+00
 56  0.00000000000000000e+00
 57  0.00000000000000000e+00
 58  0.00000000000000000e+00
 59  0.00000000000000000e+00
 60  0.00000000000000000e+00
 61  0.00000000000000000e+00
 62  0.00000000000000000e+00
 63  0.00000000000000000e+00
 64  0.00000000000000000e+00
 65  0.00000000000000000e+00
 66  0.00000000000000000e+00
 67  0.00000000000000000e+00
 68  0.00000000000000000e+00
 69  0.00000000000000000e+00
 70  0.00000000000000000e+00
 71  0.00000000000000000e+00
 72  0.00000000000000000e+00
 73  0.00000000000000000e+00
 74  0.00000000000000000e+00
 75  0.00000000000000000e+00
 76 -1.77524044197327103e-05
 77  0.00000000000000000e+00
 78  0.00000000000000000e+00
 79  6.52589598405086241e-16
 80  0.00000000000000000e+00
 81  0.00000000000000000e+00
 82  0.00000000000000000e+00
 83  1.05695590400496338e-04
 84  0.00000000000000000e+00
 85  3.26876464965320886e-06
 86  0.00000000000000000e+00
 87  0.00000000000000000e+00
 88  1.80466159434634979e-16
 89  0.00000000000000000e+00
 90  0.00000000000000000e+00
 91  0.00000000000000000e+00
 92 -1.97842875622597122e-05
 93  0.00000000000000000e+00
 94  0.00000000000000000e+00
 95  0.00000000000000000e+00
 96  0.00000000000000000e+00
 97  0.00000000000000000e+00
 98  0.00000000000000000e+00
 99  0.00000000000000000e+00
100  0.00000000000000000e+00
101  0.00000000000000000e+00
102  0.00000000000000000e+00
103  0.00000000000000000e+00
104  0.00000000000000000e+00
 Sym= B1u
 Ene= -2.46848347363212532e+01
 Spin= Alpha
 Occup=  1.00000000000000000e+00
  1  0.00000000000000000e+00
  2  0.00000000000000000e+00
  3  0.00000000000000000e+00
  4  0.00000000000000000e+00
  5  0.00000000000000000e+00
  6  0.00000000000000000e+00
  7  0.00000000000000000e+00
  8  0.00000000000000000e+00
  9  0.00000000000000000e+00
 10  0.00000000000000000e+00
 11  9.99965845259618735e-01
 12  0.00000000000000000e+00
 13  0.00000000000000000e+00
 14  1.10162859153393605e-02
 15  0.00000000000000000e+00
 16  0.00000000000000000e+00
 17 -2.59224496964712732e-02
 18  0.00000000000000000e+00
 19  0.00000000000000000e+00
 20 -2.63830320326154666e-02
 21  0.00000000000000000e+00
 22  0.00000000000000000e+00
 23  1.57873063682380525e-03
 24  0.00000000000000000e+00
 25  0.00000000000000000e+00
 26  1.81624604088193747e-03
 27  0.00000000000000000e+00
 28  0.00000000000000000e+00
 29 -8.09390633471081500e-05
 30  0.00000000000000000e+00
 31  0.00000000000000000e+00
 32  0.00000000000000000e+00
 33  0.00000000000000000e+00
 34  0.00000000000000000e+00
 35  0.00000000000000000e+00
 36  0.00000000000000000e+00
 37  0.00000000000000000e+00
 38  0.00000000000000000e+00
 39  0.00000000000000000e+00
 40  0.00000000000000000e+00
 41  0.00000000000000000e+00
 42  0.00000000000000000e+00
 43  0.00000000000000000e+00
 44  0.00000000000000000e+00
 45  0.00000000000000000e+00
 46  0.00000000000000000e+00
 47  0.00000000000000000e+00
 48  0.00000000000000000e+00
 49  0.00000000000000000e+00
 50  0.00000000000000000e+00
 51  0.00000000000000000e+00
 52  0.00000000000000000e+00
 53  0.00000000000000000e+00
 54  0.00000000000000000e+00
 55  3.20944238591583917e-04
 56  0.00000000000000000e+00
 57  0.00000000000000000e+00
 58  1.52764950104013359e-15
 59  0.00000000000000000e+00
 60  0.00000000000000000e+00
 61  0.00000000000000000e+00
 62 -5.80303223718578646e-05
 63  0.00000000000000000e+00
 64  0.00000000000000000e+00
 65  1.34650012170053135e-15
 66  0.00000000000000000e+00
 67  0.00000000000000000e+00
 68  0.00000000000000000e+00
 69  2.21416350005783243e-05
 70  0.00000000000000000e+00
 71  0.00000000000000000e+00
 72  1.17957520474584169e-16
 73  0.00000000000000000e+00
 74  0.00000000000000000e+00
 75  0.00000000000000000e+00
 76  0.00000000000000000e+00
 77  0.00000000000000000e+00
 78  0.00000000000000000e+00
 79  0.00000000000000000e+00
 80  0.00000000000000000e+00
 81  0.00000000000000000e+00
 82  0.00000000000000000e+00
 83  0.00000000000000000e+00
 84  0.00000000000000000e+00
 85  0.00000000000000000e+00
 86  0.00000000000000000e+00
 87  0.00000000000000000e+00
 88  0.00000000000000000e+00
 89  0.00000000000000000e+00
 90  0.00000000000000000e+00
 91  0.00000000000000000e+00
 92  0.00000000000000000e+00
 93  0.00000000000000000e+00
 94 -4.72141568643926595e-06
 95  0.00000000000000000e+00
 96  0.00000000000000000e+00
 97  3.89317008560655022e-16
 98  0.00000000000000000e+00
 99  0.00000000000000000e+00
100  0.00000000000000000e+00
101  1.68148043136143092e-05
102  0.00000000000000000e+00
103  0.00000000000000000e+00
104  0.00000000000000000e+00
 Sym= B3u
 Ene= -2.46594591172829958e+01
 Spin= Alpha
 Occup=  1.00000000000000000e+00
  1  0.00000000000000000e+00
  2  0.00000000000000000e+00
  3  0.00000000000000000e+00
  4  0.00000000000000000e+00
  5  0.00000000000000000e+00
  6  0.00000000000000000e+00
  7  0.00000000000000000e+00
  8  0.00000000000000000e+00
  9  9.99961301880607056e-01
 10  0.00000000000000000e+00
 11  0.00000000000000000e+00
 12  1.05656714635839252e-02
 13  0.00000000000000000e+00
 14  0.00000000000000000e+00
 15 -1.66772637029951633e-02
 16  0.00000000000000000e+00
 17  0.00000000000000000e+00
 18 -1.69969643668278041e-02
 19  0.00000000000000000e+00
 20  0.00000000000000000e+00
 21  9.72232571879410212e-04
 22  0.00000000000000000e+00
 23  0.00000000000000000e+00
 24  1.19834365006952224e-03
 25  0.00000000000000000e+00
 26  0.00000000000000000e+00
 27 -4.81574637559185209e-05
 28  0.00000000000000000e+00
 29  0.00000000000000000e+00
 30  0.00000000000000000e+00
 31  0.00000000000000000e+00
 32  0.00000000000000000e+00
 33  0.00000000000000000e+00
 34  0.00000000000000000e+00
 35  0.00000000000000000e+00
 36  0.00000000000000000e+00
 37  0.00000000000000000e+00
 38  0.00000000000000000e+00
 39  0.00000000000000000e+00
 40  0.00000000000000000e+00
 41  0.00000000000000000e+00
 42  0.00000000000000000e+00
 43  0.00000000000000000e+00
 44  0.00000000000000000e+00
 45  0.00000000000000000e+00
 46  0.00000000000000000e+00
 47  0.00000000000000000e+00
 48  0.00000000000000000e+00
 49  0.00000000000000000e+00
 50  0.00000000000000000e+00
 51  0.00000000000000000e+00
 52  0.00000000000000000e+00
 53  0.00000000000000000e+00
 54  0.00000000000000000e+00
 55  0.00000000000000000e+00
 56  3.09092282492617475e-04
 57  0.00000000000000000e+00
 58  0.00000000000000000e+00
 59  0.00000000000000000e+00
 60  1.80236632665184903e-04
 61  0.00000000000000000e+00
 62  0.00000000000000000e+00
 63 -5.23766602607161788e-05
 64  0.00000000000000000e+00
 65  0.00000000000000000e+00
 66  0.00000000000000000e+00
 67 -1.97526246878071757e-05
 68  0.00000000000000000e+00
 69  0.00000000000000000e+00
 70  2.01598221093336845e-05
 71  0.00000000000000000e+00
 72  0.00000000000000000e+00
 73  0.00000000000000000e+00
 74  7.95501268952759463e-06
 75  0.00000000000000000e+00
 76  0.00000000000000000e+00
 77  0.00000000000000000e+00
 78  0.00000000000000000e+00
 79  0.00000000000000000e+00
 80  0.00000000000000000e+00
 81  0.00000000000000000e+00
 82  0.00000000000000000e+00
 83  0.00000000000000000e+00
 84  0.00000000000000000e+00
 85  0.00000000000000000e+00
 86  0.00000000000000000e+00
 87  0.00000000000000000e+00
 88  0.00000000000000000e+00
 89  0.00000000000000000e+00
 90  0.00000000000000000e+00
 91  0.00000000000000000e+00
 92  0.00000000000000000e+00
 93  0.00000000000000000e+00
 94  0.00000000000000000e+00
 95 -3.60914811498410250e-06
 96  0.00000000000000000e+00
 97  0.00000000000000000e+00
 98  0.00000000000000000e+00
 99 -3.87176670350873810e-06
100  0.00000000000000000e+00
101  0.00000000000000000e+00
102  0.00000000000000000e+00
103  2.65286494540831884e-05
104  0.00000000000000000e+00
 Sym= B2u
 Ene= -2.46594591172826902e+01
 Spin= Alpha
 Occup=  1.00000000000000000e+00
  1  0.00000000000000000e+00
  2  0.00000000000000000e+00
  3  0.00000000000000000e+00
  4  0.00000000000000000e+00
  5  0.00000000000000000e+00
  6  0.00000000000000000e+00
  7  0.00000000000000000e+00
  8  0.00000000000000000e+00
  9  0.00000000000000000e+00
 10  9.99961301880607389e-01
 11  0.00000000000000000e+00
 12  0.00000000000000000e+00
 13  1.05656714635894641e-02
 14  0.00000000000000000e+00
 15  0.00000000000000000e+00
 16 -1.66772637033030177e-02
 17  0.00000000000000000e+00
 18  0.00000000000000000e+00
 19 -1.69969643671365259e-02
 20  0.00000000000000000e+00
 21  0.00000000000000000e+00
 22  9.72232571902781274e-04
 23  0.00000000000000000e+00
 24  0.00000000000000000e+00
 25  1.19834365008525227e-03
 26  0.00000000000000000e+00
 27  0.00000000000000000e+00
 28 -4.81574637587268485e-05
 29  0.00000000000000000e+00
 30  0.00000000000000000e+00
 31  0.00000000000000000e+00
 32  0.00000000000000000e+00
 33  0.00000000000000000e+00
 34  0.00000000000000000e+00
 35  0.00000000000000000e+00
 36  0.00000000000000000e+00
 37  0.00000000000000000e+00
 38  0.00000000000000000e+00
 39  0.00000000000000000e+00
 40  0.00000000000000000e+00
 41  0.00000000000000000e+00
 42  0.00000000000000000e+00
 43  0.00000000000000000e+00
 44  0.00000000000000000e+00
 45  0.00000000000000000e+00
 46  0.00000000000000000e+00
 47  0.00000000000000000e+00
 48  0.00000000000000000e+00
 49  0.00000000000000000e+00
 50  0.00000000000000000e+00
 51  0.00000000000000000e+00
 52  0.00000000000000000e+00
 53  0.00000000000000000e+00
 54  0.00000000000000000e+00
 55  0.00000000000000000e+00
 56  0.00000000000000000e+00
 57  3.09092282490012029e-04
 58  0.00000000000000000e+00
 59  0.00000000000000000e+00
 60  0.00000000000000000e+00
 61 -1.80236632666148271e-04
 62  0.00000000000000000e+00
 63  0.00000000000000000e+00
 64 -5.23766602612724965e-05
 65  0.00000000000000000e+00
 66  0.00000000000000000e+00
 67  0.00000000000000000e+00
 68  1.97526246874337324e-05
 69  0.00000000000000000e+00
 70  0.00000000000000000e+00
 71  2.01598221090086136e-05
 72  0.00000000000000000e+00
 73  0.00000000000000000e+00
 74  0.00000000000000000e+00
 75 -7.95501268902157884e-06
 76  0.00000000000000000e+00
 77  0.00000000000000000e+00
 78  0.00000000000000000e+00
 79  0.00000000000000000e+00
 80  0.00000000000000000e+00
 81  0.00000000000000000e+00
 82  0.00000000000000000e+00
 83  0.00000000000000000e+00
 84  0.00000000000000000e+00
 85  0.00000000000000000e+00
 86  0.00000000000000000e+00
 87  0.00000000000000000e+00
 88  0.00000000000000000e+00
 89  0.00000000000000000e+00
 90  0.00000000000000000e+00
 91  0.00000000000000000e+00
 92  0.00000000000000000e+00
 93  0.00000000000000000e+00
 94  0.00000000000000000e+00
 95  0.00000000000000000e+00
 96 -3.60914811493448119e-06
 97  0.00000000000000000e+00
 98  0.00000000000000000e+00
 99  0.00000000000000000e+00
100  3.87176670368979563e-06
101  0.00000000000000000e+00
102  0.00000000000000000e+00
103  0.00000000000000000e+00
104  2.65286494541546475e-05
 Sym= Ag
 Ene= -3.78379988189380390e+00
 Spin= Alpha
 Occup=  1.00000000000000000e+00
  1  9.37643547651779443e-04
  2  8.09103262132103603e-03
  3 -9.96484688677455654e-01
  4  1.03588997919659611e-02
  5 -6.41194786633022054e-03
  6  2.80397359432936737e-03
  7 -4.54116705477623957e-03
  8 -2.25092545532672465e-03
  9  0.00000000000000000e+00
 10  0.00000000000000000e+00
 11  0.00000000000000000e+00
 12  0.00000000000000000e+00
 13  0.00000000000000000e+00
 14  0.00000000000000000e+00
 15  0.00000000000000000e+00
 16  0.00000000000000000e+00
 17  0.00000000000000000e+00
 18  0.00000000000000000e+00
 19  0.00000000000000000e+00
 20  0.00000000000000000e+00
 21  0.00000000000000000e+00
 22  0.00000000000000000e+00
 23  0.00000000000000000e+00
 24  0.00000000000000000e+00
 25  0.00000000000000000e+00
 26  0.00000000000000000e+00
 27  0.00000000000000000e+00
 28  0.00000000000000000e+00
 29  0.00000000000000000e+00
 30 -1.26549495368095434e-02
 31  0.00000000000000000e+00
 32  0.00000000000000000e+00
 33 -9.21410227280566503e-15
 34  0.00000000000000000e+00
 35  2.78508283867849029e-03
 36  0.00000000000000000e+00
 37  0.00000000000000000e+00
 38  1.00969208085122595e-15
 39  0.00000000000000000e+00
 40  1.46311455396733333e-03
 41  0.00000000000000000e+00
 42  0.00000000000000000e+00
 43  6.74912830960537587e-15
 44  0.00000000000000000e+00
 45 -2.05514429024995521e-03
 46  0.00000000000000000e+00
 47  0.00000000000000000e+00