[Molden Format]
[Atoms] (AU)
ZN   1   30         0.000000000000       0.000000000000       0.000000000000
[GTO]
  1 0
 s   21  1.00
 17852930.0000000000         0.0000021066
  2673038.0000000000         0.0000163805
   608324.4000000000         0.0000861718
   172317.6000000000         0.0003640028
    56222.6900000000         0.0013257780
    20299.8500000000         0.0043153940
     7918.8710000000         0.0127891700
     3285.3400000000         0.0345954100
     1433.5240000000         0.0842346800
      652.2889000000         0.1769497000
      307.4360000000         0.2947718000
      149.1466000000         0.3286054000
       73.4510800000         0.1837326000
       33.9256200000         0.0284564000
       17.1894700000        -0.0015624710
        8.6665950000         0.0010576940
        3.9725050000        -0.0004832147
        1.8946650000         0.0001795943
        0.8593850000        -0.0000719837
        0.1952560000         0.0000220010
        0.0858540000        -0.0000156551
 s   21  1.00
 17852930.0000000000        -0.0000006504
  2673038.0000000000        -0.0000050596
   608324.4000000000        -0.0000266036
   172317.6000000000        -0.0001125168
    56222.6900000000        -0.0004098844
    20299.8500000000        -0.0013400850
     7918.8710000000        -0.0039962710
     3285.3400000000        -0.0110239700
     1433.5240000000        -0.0278365800
      652.2889000000        -0.0635220000
      307.4360000000        -0.1235647000
      149.1466000000        -0.1860330000
       73.4510800000        -0.1345412000
       33.9256200000         0.2026370000
       17.1894700000         0.5627948000
        8.6665950000         0.3687315000
        3.9725050000         0.0505586500
        1.8946650000        -0.0002856100
        0.8593850000         0.0012139650
        0.1952560000        -0.0001706895
        0.0858540000         0.0001266229
 s   21  1.00
 17852930.0000000000         0.0000002455
  2673038.0000000000         0.0000019113
   608324.4000000000         0.0000100414
   172317.6000000000         0.0000425171
    56222.6900000000         0.0001546957
    20299.8500000000         0.0005068054
     7918.8710000000         0.0015097420
     3285.3400000000         0.0041837440
     1433.5240000000         0.0105842500
      652.2889000000         0.0244793500
      307.4360000000         0.0483794500
      149.1466000000         0.0763098500
       73.4510800000         0.0579802100
       33.9256200000        -0.1010517000
       17.1894700000        -0.3950702000
        8.6665950000        -0.3534286000
        3.9725050000         0.3070109000
        1.8946650000         0.6935144000
        0.8593850000         0.3040583000
        0.1952560000         0.0100331800
        0.0858540000        -0.0040076220
 s   21  1.00
 17852930.0000000000         0.0000000492
  2673038.0000000000         0.0000003829
   608324.4000000000         0.0000020103
   172317.6000000000         0.0000085208
    56222.6900000000         0.0000309627
    20299.8500000000         0.0001016040
     7918.8710000000         0.0003021322
     3285.3400000000         0.0008393851
     1433.5240000000         0.0021190400
      652.2889000000         0.0049232910
      307.4360000000         0.0097136650
      149.1466000000         0.0154941300
       73.4510800000         0.0117057000
       33.9256200000        -0.0206855800
       17.1894700000        -0.0865247700
        8.6665950000        -0.0784082400
        3.9725050000         0.0795059100
        1.8946650000         0.2182560000
        0.8593850000         0.1957366000
        0.1952560000        -0.3195337000
        0.0858540000        -0.5833695000
 s   21  1.00
 17852930.0000000000        -0.0000001379
  2673038.0000000000        -0.0000010987
   608324.4000000000        -0.0000055816
   172317.6000000000        -0.0000246976
    56222.6900000000        -0.0000849970
    20299.8500000000        -0.0002979550
     7918.8710000000        -0.0008180999
     3285.3400000000        -0.0024980430
     1433.5240000000        -0.0056308660
      652.2889000000        -0.0150160700
      307.4360000000        -0.0247993500
      149.1466000000        -0.0509247200
       73.4510800000        -0.0192379700
       33.9256200000         0.0248084000
       17.1894700000         0.3402582000
        8.6665950000         0.1317501000
        3.9725050000        -0.2092734000
        1.8946650000        -1.2899700000
        0.8593850000         0.9898685000
        0.1952560000         1.4779600000
        0.0858540000        -1.2347640000
 s   21  1.00
 17852930.0000000000        -0.0000001951
  2673038.0000000000        -0.0000015135
   608324.4000000000        -0.0000079920
   172317.6000000000        -0.0000336149
    56222.6900000000        -0.0001233416
    20299.8500000000        -0.0004000292
     7918.8710000000        -0.0012067050
     3285.3400000000        -0.0032981440
     1433.5240000000        -0.0085035310
      652.2889000000        -0.0193207500
      307.4360000000        -0.0395118000
      149.1466000000        -0.0607419300
       73.4510800000        -0.0515469800
       33.9256200000         0.0906352000
       17.1894700000         0.3930253000
        8.6665950000         0.5283548000
        3.9725050000        -1.4626110000
        1.8946650000        -0.8366769000
        0.8593850000         2.6151680000
        0.1952560000        -2.2413220000
        0.0858540000         0.7597394000
 s   21  1.00
 17852930.0000000000        -0.0000002631
  2673038.0000000000        -0.0000019545
   608324.4000000000        -0.0000109806
   172317.6000000000        -0.0000425253
    56222.6900000000        -0.0001728905
    20299.8500000000        -0.0004940605
     7918.8710000000        -0.0017312810
     3285.3400000000        -0.0039527780
     1433.5240000000        -0.0126019400
      652.2889000000        -0.0220536200
      307.4360000000        -0.0626870100
      149.1466000000        -0.0587822500
       73.4510800000        -0.1200370000
       33.9256200000         0.2236128000
       17.1894700000         0.4980742000
        8.6665950000         1.1915800000
        3.9725050000        -5.6490630000
        1.8946650000         6.8434890000
        0.8593850000        -3.3201000000
        0.1952560000        -0.2249601000
        0.0858540000         1.9021540000
 s    1  1.00
        0.0367810000         1.0000000000
 p   17  1.00
    52867.9300000000         0.0000110000
    12511.7900000000         0.0000940000
     4065.2860000000         0.0005510000
     1557.5950000000         0.0025110000
      663.2892000000         0.0094700000
      304.1561000000         0.0301690000
      147.3680000000         0.0808550000
       74.4546900000         0.1751390000
       38.7149300000         0.2897160000
       20.5702200000         0.3298490000
       11.0542500000         0.2092940000
        5.8746610000         0.0562590000
        3.0529360000         0.0050520000
        1.5472250000         0.0009970000
        0.7541510000         0.0001870000
        0.2653490000         0.0000510000
        0.1020670000        -0.0000130000
 p   17  1.00
    52867.9300000000        -0.0000040000
    12511.7900000000        -0.0000350000
     4065.2860000000        -0.0002060000
     1557.5950000000        -0.0009420000
      663.2892000000        -0.0035700000
      304.1561000000        -0.0115400000
      147.3680000000        -0.0316520000
       74.4546900000        -0.0712850000
       38.7149300000        -0.1232840000
       20.5702200000        -0.1476380000
       11.0542500000        -0.0444770000
        5.8746610000         0.2053650000
        3.0529360000         0.4100860000
        1.5472250000         0.3721450000
        0.7541510000         0.1581180000
        0.2653490000         0.0145400000
        0.1020670000        -0.0016080000
 p   17  1.00
    52867.9300000000         0.0000010000
    12511.7900000000         0.0000060000
     4065.2860000000         0.0000380000
     1557.5950000000         0.0001730000
      663.2892000000         0.0006640000
      304.1561000000         0.0021200000
      147.3680000000         0.0059160000
       74.4546900000         0.0131530000
       38.7149300000         0.0233720000
       20.5702200000         0.0272210000
       11.0542500000         0.0083340000
        5.8746610000        -0.0488600000
        3.0529360000        -0.0888940000
        1.5472250000        -0.1036180000
        0.7541510000         0.0010510000
        0.2653490000         0.3030640000
        0.1020670000         0.5427240000
 p   17  1.00
    52867.9300000000         0.0000010000
    12511.7900000000         0.0000110000
     4065.2860000000         0.0000670000
     1557.5950000000         0.0002960000
      663.2892000000         0.0011570000
      304.1561000000         0.0036340000
      147.3680000000         0.0103070000
       74.4546900000         0.0224820000
       38.7149300000         0.0410330000
       20.5702200000         0.0464600000
       11.0542500000         0.0181460000
        5.8746610000        -0.0943640000
        3.0529360000        -0.1601770000
        1.5472250000        -0.1808950000
        0.7541510000         0.0948260000
        0.2653490000         0.6291530000
        0.1020670000         0.4083180000
 p   17  1.00
    52867.9300000000         0.0000030000
    12511.7900000000         0.0000240000
     4065.2860000000         0.0001590000
     1557.5950000000         0.0006460000
      663.2892000000         0.0027470000
      304.1561000000         0.0079380000
      147.3680000000         0.0246010000
       74.4546900000         0.0485760000
       38.7149300000         0.1006820000
       20.5702200000         0.0984680000
       11.0542500000         0.0862350000
        5.8746610000        -0.3793800000
        3.0529360000        -0.4203930000
        1.5472250000        -0.1825620000
        0.7541510000         1.1778870000
        0.2653490000         0.0519740000
        0.1020670000        -0.7444770000
 p   17  1.00
    52867.9300000000        -0.0000030000
    12511.7900000000        -0.0000360000
     4065.2860000000        -0.0001740000
     1557.5950000000        -0.0009530000
      663.2892000000        -0.0030470000
      304.1561000000        -0.0117360000
      147.3680000000        -0.0270160000
       74.4546900000        -0.0747980000
       38.7149300000        -0.0982370000
       20.5702200000        -0.2150840000
       11.0542500000        -0.0322140000
        5.8746610000         0.7563080000
        3.0529360000         0.7019320000
        1.5472250000        -1.8141870000
        0.7541510000         0.2914540000
        0.2653490000         1.2956230000
        0.1020670000        -1.0670890000
 p    1  1.00
        0.0387550000         1.0000000000
 d   10  1.00
      639.7806000000         0.0002080000
      192.6742000000         0.0019540000
       74.8436800000         0.0107110000
       32.8604800000         0.0390570000
       15.3935300000         0.1048480000
        7.5255120000         0.2045690000
        3.7154290000         0.2852080000
        1.8064590000         0.3014460000
        0.8529730000         0.2462280000
        0.3847800000         0.1390160000
 d   10  1.00
      639.7806000000        -0.0002900000
      192.6742000000        -0.0027380000
       74.8436800000        -0.0151110000
       32.8604800000        -0.0556430000
       15.3935300000        -0.1558640000
        7.5255120000        -0.3034890000
        3.7154290000        -0.3062760000
        1.8064590000         0.0333950000
        0.8529730000         0.4000750000
        0.3847800000         0.3899720000
 d   10  1.00
      639.7806000000        -0.0003170000
      192.6742000000        -0.0030560000
       74.8436800000        -0.0167530000
       32.8604800000        -0.0627120000
       15.3935300000        -0.1879800000
        7.5255120000        -0.3720840000
        3.7154290000        -0.0234390000
        1.8064590000         0.6054700000
        0.8529730000         0.3230630000
        0.3847800000        -0.4713720000
 d   10  1.00
      639.7806000000         0.0004520000
      192.6742000000         0.0038790000
       74.8436800000         0.0235700000
       32.8604800000         0.0825260000
       15.3935300000         0.2972800000
        7.5255120000         0.4368320000
        3.7154290000        -0.6042900000
        1.8064590000        -0.6746050000
        0.8529730000         0.9387020000
        0.3847800000         0.2779680000
 d    1  1.00
        0.1593370000         1.0000000000
 f    1  1.00
        8.6960000000         1.0000000000
 f    1  1.00
        2.7236000000         1.0000000000
 f    1  1.00
        0.8530000000         1.0000000000
 g    1  1.00
        6.8933000000         1.0000000000
 g    1  1.00
        2.0693000000         1.0000000000
 h    1  1.00
        4.4136000000         1.0000000000

[5D]
[9G]

[MO]
 Sym= Ag
 Ene= -3.53304520228402566e+02
 Spin= Alpha
 Occup=  2.00000000000000000e+00
  1  9.99999972893219180e-01
  2  1.38822147616810621e-08
  3 -1.00422746370069089e-08
  4  1.92146818463801111e-08
  5  1.09649796281228101e-08
  6 -3.86280247564343226e-09
  7  1.92280991572228182e-08
  8  4.98210463999350920e-06
  9  0.00000000000000000e+00
 10  0.00000000000000000e+00
 11  0.00000000000000000e+00
 12  0.00000000000000000e+00
 13  0.00000000000000000e+00
 14  0.00000000000000000e+00
 15  0.00000000000000000e+00
 16  0.00000000000000000e+00
 17  0.00000000000000000e+00
 18  0.00000000000000000e+00
 19  0.00000000000000000e+00
 20  0.00000000000000000e+00
 21  0.00000000000000000e+00
 22  0.00000000000000000e+00
 23  0.00000000000000000e+00
 24  0.00000000000000000e+00
 25  0.00000000000000000e+00
 26  0.00000000000000000e+00
 27  0.00000000000000000e+00
 28  0.00000000000000000e+00
 29  0.00000000000000000e+00
 30  3.93625326343973047e-13
 31  0.00000000000000000e+00
 32  0.00000000000000000e+00
 33 -1.21577905693214351e-14
 34  0.00000000000000000e+00
 35  1.63298499193816086e-12
 36  0.00000000000000000e+00
 37  0.00000000000000000e+00
 38 -5.26452255253529101e-14
 39  0.00000000000000000e+00
 40 -1.04082909650225588e-12
 41  0.00000000000000000e+00
 42  0.00000000000000000e+00
 43  3.31017663825853304e-14
 44  0.00000000000000000e+00
 45 -1.62138742919021723e-12
 46  0.00000000000000000e+00
 47  0.00000000000000000e+00
 48  5.21091325533704665e-14
 49  0.00000000000000000e+00
 50 -3.52934442424315924e-13
 51  0.00000000000000000e+00
 52  0.00000000000000000e+00
 53  1.14095129811482972e-14
 54  0.00000000000000000e+00
 55  0.00000000000000000e+00
 56  0.00000000000000000e+00
 57  0.00000000000000000e+00
 58  0.00000000000000000e+00
 59  0.00000000000000000e+00
 60  0.00000000000000000e+00
 61  0.00000000000000000e+00
 62  0.00000000000000000e+00
 63  0.00000000000000000e+00
 64  0.00000000000000000e+00
 65  0.00000000000000000e+00
 66  0.00000000000000000e+00
 67  0.00000000000000000e+00
 68  0.00000000000000000e+00
 69  0.00000000000000000e+00
 70  0.00000000000000000e+00
 71  0.00000000000000000e+00
 72  0.00000000000000000e+00
 73  0.00000000000000000e+00
 74  0.00000000000000000e+00
 75  0.00000000000000000e+00
 76 -1.09306134806004332e-12
 77  0.00000000000000000e+00
 78  0.00000000000000000e+00
 79 -2.27065953548976629e-14
 80  0.00000000000000000e+00
 81  0.00000000000000000e+00
 82  0.00000000000000000e+00
 83 -4.04975196081505279e-16
 84  0.00000000000000000e+00
 85  2.22763366260241213e-13
 86  0.00000000000000000e+00
 87  0.00000000000000000e+00
 88  4.79396555364531923e-15
 89  0.00000000000000000e+00
 90  0.00000000000000000e+00
 91  0.00000000000000000e+00
 92  4.13193676405845826e-16
 93  0.00000000000000000e+00
 94  0.00000000000000000e+00
 95  0.00000000000000000e+00
 96  0.00000000000000000e+00
 97  0.00000000000000000e+00
 98  0.00000000000000000e+00
 99  0.00000000000000000e+00
100  0.00000000000000000e+00
101  0.00000000000000000e+00
102  0.00000000000000000e+00
103  0.00000000000000000e+00
104  0.00000000000000000e+00
 Sym= Ag
 Ene= -4.43616848051010351e+01
 Spin= Alpha
 Occup=  2.00000000000000000e+00
  1  2.25915284226820724e-09
  2  1.00000167351303837e+00
  3  8.26535888730745383e-07
  4 -2.46832346003857189e-06
  5 -1.15482185775132725e-06
  6  6.35908170083762890e-07
  7 -2.01528087527171862e-06
  8 -4.08319077878798698e-05
  9  0.00000000000000000e+00
 10  0.00000000000000000e+00
 11  0.00000000000000000e+00
 12  0.00000000000000000e+00
 13  0.00000000000000000e+00
 14  0.00000000000000000e+00
 15  0.00000000000000000e+00
 16  0.00000000000000000e+00
 17  0.00000000000000000e+00
 18  0.00000000000000000e+00
 19  0.00000000000000000e+00
 20  0.00000000000000000e+00
 21  0.00000000000000000e+00
 22  0.00000000000000000e+00
 23  0.00000000000000000e+00
 24  0.00000000000000000e+00
 25  0.00000000000000000e+00
 26  0.00000000000000000e+00
 27  0.00000000000000000e+00
 28  0.00000000000000000e+00
 29  0.00000000000000000e+00
 30 -8.80891842268862946e-12
 31  0.00000000000000000e+00
 32  0.00000000000000000e+00
 33  3.25160144032083363e-13
 34  0.00000000000000000e+00
 35  3.50270304376616616e-11
 36  0.00000000000000000e+00
 37  0.00000000000000000e+00
 38 -1.41783955793510836e-12
 39  0.00000000000000000e+00
 40 -1.14161967868155338e-11
 41  0.00000000000000000e+00
 42  0.00000000000000000e+00
 43  4.57751812223048359e-13
 44  0.00000000000000000e+00
 45 -3.00428226500800424e-11
 46  0.00000000000000000e+00
 47  0.00000000000000000e+00
 48  1.21170810839348832e-12
 49  0.00000000000000000e+00
 50 -5.76691814510124615e-12
 51  0.00000000000000000e+00
 52  0.00000000000000000e+00
 53  2.24287064838570522e-13
 54  0.00000000000000000e+00
 55  0.00000000000000000e+00
 56  0.00000000000000000e+00
 57  0.00000000000000000e+00
 58  0.00000000000000000e+00
 59  0.00000000000000000e+00
 60  0.00000000000000000e+00
 61  0.00000000000000000e+00
 62  0.00000000000000000e+00
 63  0.00000000000000000e+00
 64  0.00000000000000000e+00
 65  0.00000000000000000e+00
 66  0.00000000000000000e+00
 67  0.00000000000000000e+00
 68  0.00000000000000000e+00
 69  0.00000000000000000e+00
 70  0.00000000000000000e+00
 71  0.00000000000000000e+00
 72  0.00000000000000000e+00
 73  0.00000000000000000e+00
 74  0.00000000000000000e+00
 75  0.00000000000000000e+00
 76 -1.73411934448522832e-10
 77  0.00000000000000000e+00
 78  0.00000000000000000e+00
 79 -3.63293599046059914e-12
 80  0.00000000000000000e+00
 81  0.00000000000000000e+00
 82  0.00000000000000000e+00
 83 -4.50667958680839532e-14
 84  0.00000000000000000e+00
 85 -8.06585444563365338e-12
 86  0.00000000000000000e+00
 87  0.00000000000000000e+00
 88 -1.68725528781082031e-13
 89  0.00000000000000000e+00
 90  0.00000000000000000e+00
 91  0.00000000000000000e+00
 92 -2.19816644578523079e-15
 93  0.00000000000000000e+00
 94  0.00000000000000000e+00
 95  0.00000000000000000e+00
 96  0.00000000000000000e+00
 97  0.00000000000000000e+00
 98  0.00000000000000000e+00
 99  0.00000000000000000e+00
100  0.00000000000000000e+00
101  0.00000000000000000e+00
102  0.00000000000000000e+00
103  0.00000000000000000e+00
104  0.00000000000000000e+00
 Sym= B3u
 Ene= -3.89248049845796729e+01
 Spin= Alpha
 Occup=  2.00000000000000000e+00
  1  0.00000000000000000e+00
  2  0.00000000000000000e+00
  3  0.00000000000000000e+00
  4  0.00000000000000000e+00
  5  0.00000000000000000e+00
  6  0.00000000000000000e+00
  7  0.00000000000000000e+00
  8  0.00000000000000000e+00
  9  1.00000000514761900e+00
 10  0.00000000000000000e+00
 11  0.00000000000000000e+00
 12 -7.85915504449759297e-09
 13  0.00000000000000000e+00
 14  0.00000000000000000e+00
 15  1.43182021899719616e-05
 16  0.00000000000000000e+00
 17  0.00000000000000000e+00
 18 -1.37587063193223263e-05
 19  0.00000000000000000e+00
 20  0.00000000000000000e+00
 21  2.30462341770526595e-06
 22  0.00000000000000000e+00
 23  0.00000000000000000e+00
 24  1.63096119235114087e-06
 25  0.00000000000000000e+00
 26  0.00000000000000000e+00
 27  3.36747123953211236e-06
 28  0.00000000000000000e+00
 29  0.00000000000000000e+00
 30  0.00000000000000000e+00
 31  0.00000000000000000e+00
 32  0.00000000000000000e+00
 33  0.00000000000000000e+00
 34  0.00000000000000000e+00
 35  0.00000000000000000e+00
 36  0.00000000000000000e+00
 37  0.00000000000000000e+00
 38  0.00000000000000000e+00
 39  0.00000000000000000e+00
 40  0.00000000000000000e+00
 41  0.00000000000000000e+00
 42  0.00000000000000000e+00
 43  0.00000000000000000e+00
 44  0.00000000000000000e+00
 45  0.00000000000000000e+00
 46  0.00000000000000000e+00
 47  0.00000000000000000e+00
 48  0.00000000000000000e+00
 49  0.00000000000000000e+00
 50  0.00000000000000000e+00
 51  0.00000000000000000e+00
 52  0.00000000000000000e+00
 53  0.00000000000000000e+00
 54  0.00000000000000000e+00
 55  0.00000000000000000e+00
 56  3.25066229802542272e-10
 57  0.00000000000000000e+00
 58  0.00000000000000000e+00
 59  0.00000000000000000e+00
 60  2.76536744643929857e-12
 61  0.00000000000000000e+00
 62  0.00000000000000000e+00
 63  1.41328582873381429e-10
 64  0.00000000000000000e+00
 65  0.00000000000000000e+00
 66  0.00000000000000000e+00
 67  3.65511393594572209e-13
 68  0.00000000000000000e+00
 69  0.00000000000000000e+00
 70 -4.47929173963264766e-11
 71  0.00000000000000000e+00
 72  0.00000000000000000e+00
 73  0.00000000000000000e+00
 74 -6.76165288082540347e-14
 75  0.00000000000000000e+00
 76  0.00000000000000000e+00
 77  0.00000000000000000e+00
 78  0.00000000000000000e+00
 79  0.00000000000000000e+00
 80  0.00000000000000000e+00
 81  0.00000000000000000e+00
 82  0.00000000000000000e+00
 83  0.00000000000000000e+00
 84  0.00000000000000000e+00
 85  0.00000000000000000e+00
 86  0.00000000000000000e+00
 87  0.00000000000000000e+00
 88  0.00000000000000000e+00
 89  0.00000000000000000e+00
 90  0.00000000000000000e+00
 91  0.00000000000000000e+00
 92  0.00000000000000000e+00
 93  0.00000000000000000e+00
 94  0.00000000000000000e+00
 95 -1.54501414544640400e-11
 96  0.00000000000000000e+00
 97  0.00000000000000000e+00
 98  0.00000000000000000e+00
 99 -3.14981150194919724e-13
100  0.00000000000000000e+00
101  0.00000000000000000e+00
102  0.00000000000000000e+00
103 -4.99054458142573750e-15
104  0.00000000000000000e+00
 Sym= B2u
 Ene= -3.89248049843723720e+01
 Spin= Alpha
 Occup=  2.00000000000000000e+00
  1  0.00000000000000000e+00
  2  0.00000000000000000e+00
  3  0.00000000000000000e+00
  4  0.00000000000000000e+00
  5  0.00000000000000000e+00
  6  0.00000000000000000e+00
  7  0.00000000000000000e+00
  8  0.00000000000000000e+00
  9  0.00000000000000000e+00
 10  1.00000000514761389e+00
 11  0.00000000000000000e+00
 12  0.00000000000000000e+00
 13 -7.85909269882581633e-09
 14  0.00000000000000000e+00
 15  0.00000000000000000e+00
 16  1.43181982776947398e-05
 17  0.00000000000000000e+00
 18  0.00000000000000000e+00
 19 -1.37587025796793588e-05
 20  0.00000000000000000e+00
 21  0.00000000000000000e+00
 22  2.30462310545747380e-06
 23  0.00000000000000000e+00
 24  0.00000000000000000e+00
 25  1.63096058037074873e-06
 26  0.00000000000000000e+00
 27  0.00000000000000000e+00
 28  3.36747129582529099e-06
 29  0.00000000000000000e+00
 30  0.00000000000000000e+00
 31  0.00000000000000000e+00
 32  0.00000000000000000e+00
 33  0.00000000000000000e+00
 34  0.00000000000000000e+00
 35  0.00000000000000000e+00
 36  0.00000000000000000e+00
 37  0.00000000000000000e+00
 38  0.00000000000000000e+00
 39  0.00000000000000000e+00
 40  0.00000000000000000e+00
 41  0.00000000000000000e+00
 42  0.00000000000000000e+00
 43  0.00000000000000000e+00
 44  0.00000000000000000e+00
 45  0.00000000000000000e+00
 46  0.00000000000000000e+00
 47  0.00000000000000000e+00
 48  0.00000000000000000e+00
 49  0.00000000000000000e+00
 50  0.00000000000000000e+00
 51  0.00000000000000000e+00
 52  0.00000000000000000e+00
 53  0.00000000000000000e+00
 54  0.00000000000000000e+00
 55  0.00000000000000000e+00
 56  0.00000000000000000e+00
 57  3.41989933980891405e-10
 58  0.00000000000000000e+00
 59  0.00000000000000000e+00
 60  0.00000000000000000e+00
 61  3.04584919190734223e-12
 62  0.00000000000000000e+00
 63  0.00000000000000000e+00
 64  1.47426449209945174e-10
 65  0.00000000000000000e+00
 66  0.00000000000000000e+00
 67  0.00000000000000000e+00
 68  4.73336349015283379e-13
 69  0.00000000000000000e+00
 70  0.00000000000000000e+00
 71 -4.66475627892807963e-11
 72  0.00000000000000000e+00
 73  0.00000000000000000e+00
 74  0.00000000000000000e+00
 75 -1.00654396554466560e-13
 76  0.00000000000000000e+00
 77  0.00000000000000000e+00
 78  0.00000000000000000e+00
 79  0.00000000000000000e+00
 80  0.00000000000000000e+00
 81  0.00000000000000000e+00
 82  0.00000000000000000e+00
 83  0.00000000000000000e+00
 84  0.00000000000000000e+00
 85  0.00000000000000000e+00
 86  0.00000000000000000e+00
 87  0.00000000000000000e+00
 88  0.00000000000000000e+00
 89  0.00000000000000000e+00
 90  0.00000000000000000e+00
 91  0.00000000000000000e+00
 92  0.00000000000000000e+00
 93  0.00000000000000000e+00
 94  0.00000000000000000e+00
 95  0.00000000000000000e+00
 96 -1.57421793663549940e-11
 97  0.00000000000000000e+00
 98  0.00000000000000000e+00
 99  0.00000000000000000e+00
100 -3.16911665481348971e-13
101  0.00000000000000000e+00
102  0.00000000000000000e+00
103  0.00000000000000000e+00
104 -4.99641937749930004e-15
 Sym= B1u
 Ene= -3.89248049792371944e+01
 Spin= Alpha
 Occup=  2.00000000000000000e+00
  1  0.00000000000000000e+00
  2  0.00000000000000000e+00
  3  0.00000000000000000e+00
  4  0.00000000000000000e+00
  5  0.00000000000000000e+00
  6  0.00000000000000000e+00
  7  0.00000000000000000e+00
  8  0.00000000000000000e+00
  9  0.00000000000000000e+00
 10  0.00000000000000000e+00
 11  1.00000000514753862e+00
 12  0.00000000000000000e+00
 13  0.00000000000000000e+00
 14 -7.85764811183202815e-09
 15  0.00000000000000000e+00
 16  0.00000000000000000e+00
 17  1.43181275494082242e-05
 18  0.00000000000000000e+00
 19  0.00000000000000000e+00
 20 -1.37586343170756999e-05
 21  0.00000000000000000e+00
 22  0.00000000000000000e+00
 23  2.30462226983056464e-06
 24  0.00000000000000000e+00
 25  0.00000000000000000e+00
 26  1.63094786490163768e-06
 27  0.00000000000000000e+00
 28  0.00000000000000000e+00
 29  3.36747245115807590e-06
 30  0.00000000000000000e+00
 31  0.00000000000000000e+00
 32  0.00000000000000000e+00
 33  0.00000000000000000e+00
 34  0.00000000000000000e+00
 35  0.00000000000000000e+00
 36  0.00000000000000000e+00
 37  0.00000000000000000e+00
 38  0.00000000000000000e+00
 39  0.00000000000000000e+00
 40  0.00000000000000000e+00
 41  0.00000000000000000e+00
 42  0.00000000000000000e+00
 43  0.00000000000000000e+00
 44  0.00000000000000000e+00
 45  0.00000000000000000e+00
 46  0.00000000000000000e+00
 47  0.00000000000000000e+00
 48  0.00000000000000000e+00
 49  0.00000000000000000e+00
 50  0.00000000000000000e+00
 51  0.00000000000000000e+00
 52  0.00000000000000000e+00
 53  0.00000000000000000e+00
 54  0.00000000000000000e+00
 55 -5.99617036266842276e-10
 56  0.00000000000000000e+00
 57  0.00000000000000000e+00
 58 -9.82081083526916468e-12
 59  0.00000000000000000e+00
 60  0.00000000000000000e+00
 61  0.00000000000000000e+00
 62 -2.07587554973662874e-10
 63  0.00000000000000000e+00
 64  0.00000000000000000e+00
 65 -4.30742716020889543e-12
 66  0.00000000000000000e+00
 67  0.00000000000000000e+00
 68  0.00000000000000000e+00
 69  6.23759264654528207e-11
 70  0.00000000000000000e+00
 71  0.00000000000000000e+00
 72  1.36331740970243701e-12
 73  0.00000000000000000e+00
 74  0.00000000000000000e+00
 75  0.00000000000000000e+00
 76  0.00000000000000000e+00
 77  0.00000000000000000e+00
 78  0.00000000000000000e+00
 79  0.00000000000000000e+00
 80  0.00000000000000000e+00
 81  0.00000000000000000e+00
 82  0.00000000000000000e+00
 83  0.00000000000000000e+00
 84  0.00000000000000000e+00
 85  0.00000000000000000e+00
 86  0.00000000000000000e+00
 87  0.00000000000000000e+00
 88  0.00000000000000000e+00
 89  0.00000000000000000e+00
 90  0.00000000000000000e+00
 91  0.00000000000000000e+00
 92  0.00000000000000000e+00
 93  0.00000000000000000e+00
 94 -2.01459878385671864e-11
 95  0.00000000000000000e+00
 96  0.00000000000000000e+00
 97 -3.86829584296611451e-13
 98  0.00000000000000000e+00
 99  0.00000000000000000e+00
100  0.00000000000000000e+00
101 -3.13995585179702455e-15
102  0.00000000000000000e+00
103  0.00000000000000000e+00
104  0.00000000000000000e+00
 Sym= Ag
 Ene= -5.63777929923664711e+00
 Spin= Alpha
 Occup=  2.00000000000000000e+00
  1 -3.46884373831486003e-08
  2 -5.23779421391737452e-07
  3  9.99811710520418284e-01
  4  7.23740569342774036e-06
  5  3.78889588644746840e-06
  6 -1.61640340320961932e-06
  7  6.17356973874422240e-06
  8  1.06119374543524325e-03
  9  0.00000000000000000e+00
 10  0.00000000000000000e+00
 11  0.00000000000000000e+00
 12  0.00000000000000000e+00
 13  0.00000000000000000e+00
 14  0.00000000000000000e+00
 15  0.00000000000000000e+00
 16  0.00000000000000000e+00
 17  0.00000000000000000e+00
 18  0.00000000000000000e+00
 19  0.00000000000000000e+00
 20  0.00000000000000000e+00
 21  0.00000000000000000e+00
 22  0.00000000000000000e+00
 23  0.00000000000000000e+00
 24  0.00000000000000000e+00
 25  0.00000000000000000e+00
 26  0.00000000000000000e+00
 27  0.00000000000000000e+00
 28  0.00000000000000000e+00
 29  0.00000000000000000e+00
 30 -2.00122061784347285e-09
 31  0.00000000000000000e+00
 32  0.00000000000000000e+00
 33  6.29812850801946148e-11
 34  0.00000000000000000e+00
 35  3.95611969249047627e-10
 36  0.00000000000000000e+00
 37  0.00000000000000000e+00
 38 -1.10134085827863739e-11
 39  0.00000000000000000e+00
 40  2.04319133659334120e-10
 41  0.00000000000000000e+00
 42  0.00000000000000000e+00
 43 -6.75918420985837841e-12
 44  0.00000000000000000e+00
 45  2.11960689072157615e-10
 46  0.00000000000000000e+00
 47  0.00000000000000000e+00