Jobname.Temp
SP        R                             STO-3G              
Number of atoms                            I                3
Charge                                     I                0
Multiplicity                               I                1
Number of electrons                        I               10
Number of alpha electrons                  I                5
Number of beta electrons                   I                5
Atomic numbers                             I   N=           3
           8           1           1
Current cartesian coordinates              R   N=           9
 -2.77555756E-17  2.40503608E-17  2.26767135E-01 -1.96386100E+00 -2.16453248E-16
 -9.07068540E-01  1.96386100E+00  2.40503608E-17 -9.07068540E-01
Nuclear charges                            R   N=           3
  8.00000000E+00  1.00000000E+00  1.00000000E+00
Number of basis functions                  I                7
Number of contracted shells                I                4
Number of primitive shells                 I               12
Highest angular momentum                   I                1
Largest degree of contraction              I                3
Shell types                                I   N=           4
           0          -1           0           0
Number of primitives per shell             I   N=           4
           3           3           3           3
Shell to atom map                          I   N=           4
           1           1           2           3
Primitive exponents                        R   N=          12
  1.30709320E+02  2.38088610E+01  6.44360830E+00  5.03315130E+00  1.16959610E+00
  3.80389000E-01  3.42525091E+00  6.23913730E-01  1.68855400E-01  3.42525091E+00
  6.23913730E-01  1.68855400E-01
Contraction coefficients                   R   N=          12
  1.54328969E-01  5.35328136E-01  4.44634536E-01 -9.99672287E-02  3.99512825E-01
  7.00115461E-01  1.54328971E-01  5.35328142E-01  4.44634542E-01  1.54328971E-01
  5.35328142E-01  4.44634542E-01
P(S=P) Contraction coefficients            R   N=          12
  0.00000000E+00  0.00000000E+00  0.00000000E+00  1.55916268E-01  6.07683714E-01
  3.91957386E-01  0.00000000E+00  0.00000000E+00  0.00000000E+00  0.00000000E+00
  0.00000000E+00  0.00000000E+00
Coordinates of each shell                  R   N=          12
 -2.77555756E-17  2.40503608E-17  2.26767135E-01 -2.77555756E-17  2.40503608E-17
  2.26767135E-01 -1.96386100E+00 -2.16453248E-16 -9.07068540E-01  1.96386100E+00
  2.40503608E-17 -9.07068540E-01
Overlap Matrix                             R   N=          28
  1.00000000E+00  2.36703937E-01  1.00000000E+00  2.05897475E-34  0.00000000E+00
  1.00000000E+00 -1.11888615E-33  3.15779440E-34  0.00000000E+00  1.00000000E+00
  3.31378814E-18  2.91527648E-17  0.00000000E+00  0.00000000E+00  1.00000000E+00
  3.03206852E-02  3.30666168E-01 -2.61806551E-01 -3.20620555E-17 -1.51154083E-01
  1.00000000E+00  3.03206852E-02  3.30666168E-01  2.61806551E-01 -4.66419160E-33
 -1.51154083E-01  1.04667218E-01  1.00000000E+00
Core Hamiltonian Matrix                    R   N=          28
 -3.24972170E+01 -7.55985426E+00 -9.12349846E+00  0.00000000E+00  0.00000000E+00
 -7.38977655E+00  0.00000000E+00  0.00000000E+00  0.00000000E+00 -7.28189747E+00
  9.87721451E-03  1.22465862E-01  0.00000000E+00  0.00000000E+00 -7.31785716E+00
 -9.76837931E-01 -2.41127683E+00  1.58494404E+00 -1.41329313E-17  9.40138629E-01
 -4.19977518E+00 -9.76837931E-01 -2.41127683E+00 -1.58494404E+00 -1.66517151E-33
  9.40138629E-01 -6.13083150E-01 -4.19977518E+00
Number of independent functions            I                7
Alpha MO coefficients                      R   N=          49
  9.94571479E-01  2.30506686E-02 -6.23416249E-17  1.42085575E-17 -2.28668182E-03
 -3.90733696E-03 -3.90733696E-03 -2.43909351E-01  9.17547051E-01 -1.21430643E-15
  5.29521914E-16 -5.55494435E-02  1.33251723E-01  1.33251723E-01  2.94902991E-16
 -2.08166817E-16  5.87493847E-01 -1.28190520E-15  2.10248485E-15 -4.56870348E-01
  4.56870348E-01 -7.96161162E-02  4.05600283E-01 -2.24820162E-15  1.40099823E-14
  7.75492099E-01 -3.45049814E-01 -3.45049814E-01  1.03103842E-15 -5.60595889E-15
  4.20407760E-16  1.00000000E+00 -1.05931613E-14  3.97221890E-15  5.19461541E-15
  1.02607471E-01 -5.77547739E-01 -4.92661467E-15  3.33074495E-17  6.70982985E-01
  6.79463174E-01  6.79463174E-01 -1.56125113E-16  1.36002321E-15 -9.14135294E-01
  9.55357138E-17 -4.66987560E-15 -6.71330643E-01  6.71330643E-01
Alpha Orbital Energies                     R   N=           7
 -2.02531445E+01 -1.16839478E+00 -5.19948632E-01 -3.87727137E-01 -3.75704729E-01
  3.66804440E-01  5.39983862E-01
Total SCF Density                          R   N=          28
  2.11000585E+00 -4.66330174E-01  2.01387103E+00  1.17284853E-15 -4.29957648E-15
  6.90298039E-01 -3.98811760E-16  1.12536532E-15 -6.65407310E-16  2.00000000E+00
 -1.00933818E-01  5.27035754E-01 -8.81338161E-16  4.84044259E-16  1.20895793E+00
 -1.78318822E-02 -3.55552866E-02 -5.36817037E-01 -4.11508416E-16 -5.49953057E-01
  6.91122357E-01 -1.78318822E-02 -3.55552866E-02  5.36817037E-01 -3.09373295E-16
 -5.49953057E-01 -1.43799705E-01  6.91122357E-01
Pure Switching                             I                1
Dipole_Data                                R   N=           3
  3.56685030E-15 -2.86879096E-15 -1.32745880E+00
Quadrupole_Data                            R   N=           6
 -3.72294336E+00  6.09707434E-16 -6.25497608E+00  4.58926866E-15 -8.36861773E-16
 -5.60143573E+00
Octapole_Data                              R   N=          10
 -6.25077867E-15 -2.85150547E-16 -3.89014607E-16 -8.32212444E-16 -8.34917354E-01
  6.80238800E-19  9.67180398E-02 -9.63645892E-16 -4.35533175E-16  1.93188969E-01
Hexadecapole_Data                          R   N=          15
 -9.32903795E+00  4.94947533E-17 -2.58063127E+00 -1.15316173E-16 -3.41829877E+00
  4.44158081E-15 -9.51346321E-17  4.66583619E-16 -4.35108545E-16 -2.32152331E+00
  5.66396919E-18 -1.49620285E+00  2.17942211E-15 -4.43439083E-16 -5.37748509E+00
