Foo Bar
SP        RHF                                                         STO-3G
Number of atoms                            I                3
Charge                                     I                0
Multiplicity                               I                1
Number of electrons                        I               10
Number of alpha electrons                  I                5
Number of beta electrons                   I                5
Number of basis functions                  I                7
Number of independant functions            I                7
Number of point charges in /Mol/           I                0
Number of contracted shells                I                4
Highest angular momentum                   I                1
Largest degree of contraction              I                3
Number of primitive shells                 I               12
Pure/Cartesian d shells                    I                0
Pure/Cartesian f shells                    I                0
Virial Ratio                               R      2.004717013975620E+00
SCF Energy                                 R     -7.495929232844363E+01
Total Energy                               R     -7.495929232844363E+01
RMS Density                                R      3.060568223032452E-10
Atomic numbers                             I   N=           3
           8           1           1
Nuclear charges                            R   N=           3
  8.00000000E+00  1.00000000E+00  1.00000000E+00
Current cartesian coordinates              R   N=           9
  0.00000000E+00  0.00000000E+00  0.00000000E+00  0.00000000E+00  0.00000000E+00
  1.79523983E+00  1.69257101E+00  0.00000000E+00 -5.98406347E-01
Integer atomic weights                     I   N=           3
          16           1           1
Real atomic weights                        R   N=           3
  1.59949146E+01  1.00782504E+00  1.00782504E+00
Nuclear spins                              I   N=           3
           0           1           1
Shell types                                I   N=           4
           0          -1           0           0
Number of primitives per shell             I   N=           4
           3           3           3           3
Shell to atom map                          I   N=           4
           1           1           2           3
Primitive exponents                        R   N=          12
  1.30709321E+02  2.38088661E+01  6.44360831E+00  5.03315132E+00  1.16959612E+00
  3.80388960E-01  3.42525091E+00  6.23913730E-01  1.68855404E-01  3.42525091E+00
  6.23913730E-01  1.68855404E-01
Contraction coefficients                   R   N=          12
  1.54328967E-01  5.35328142E-01  4.44634542E-01 -9.99672292E-02  3.99512826E-01
  7.00115469E-01  1.54328967E-01  5.35328142E-01  4.44634542E-01  1.54328967E-01
  5.35328142E-01  4.44634542E-01
P(S=P) Contraction coefficients            R   N=          12
  0.00000000E+00  0.00000000E+00  0.00000000E+00  1.55916275E-01  6.07683719E-01
  3.91957393E-01  0.00000000E+00  0.00000000E+00  0.00000000E+00  0.00000000E+00
  0.00000000E+00  0.00000000E+00
Coordinates of each shell                  R   N=          12
  0.00000000E+00  0.00000000E+00  0.00000000E+00  0.00000000E+00  0.00000000E+00
  0.00000000E+00  0.00000000E+00  0.00000000E+00  1.79523983E+00  1.69257101E+00
  0.00000000E+00 -5.98406347E-01
Alpha Orbital Energies                     R   N=           7
 -2.02333942E+01 -1.26583942E+00 -6.29365088E-01 -4.41724988E-01 -3.87671783E-01
  6.03082408E-01  7.66134805E-01
Alpha MO coefficients                      R   N=          49
  9.94099882E-01  2.67799213E-02  3.46630004E-03  2.72896277E-16  2.45105601E-03
 -6.08393842E-03 -6.08393693E-03 -2.32889095E-01  8.31788042E-01  1.03349385E-01
 -2.21764760E-16  7.30794097E-02  1.60223990E-01  1.60223948E-01  1.65502866E-08
 -9.03020278E-08 -3.46565859E-01  4.92555323E-16  4.90116062E-01  4.41542336E-01
 -4.41542341E-01  1.00235366E-01 -5.23423149E-01  6.48259144E-01 -6.18875097E-15
  4.58390414E-01  2.69085788E-01  2.69085849E-01  6.55422174E-16 -3.01062443E-15
  3.74502802E-15  1.00000000E+00  2.54192740E-15  1.34551715E-15  1.99471214E-15
 -1.35631600E-01  9.08581133E-01  5.83295647E-01  1.62509738E-16  4.12453695E-01
 -8.07337352E-01 -8.07337875E-01  5.67656304E-08 -4.29452063E-07  5.82525068E-01
 -6.76860125E-17 -8.23811720E-01  8.42614916E-01 -8.42614243E-01
Total SCF Density                          R   N=          28
  2.10503807E+00 -4.39115917E-01  1.93312061E+00  8.87107806E-02 -5.06512403E-01
  1.10208185E+00  7.16046434E-16  1.03115828E-16 -9.19125113E-16  2.00000000E+00
  6.27282714E-02 -3.58159960E-01  2.69718983E-01 -1.38129990E-16  9.11364268E-01
 -3.27810857E-02 -1.54725977E-02  7.59035717E-02 -2.78992150E-16  7.02894999E-01
  5.86151074E-01 -3.27810800E-02 -1.54725729E-02  6.87997641E-01  1.49460969E-16
 -1.62732921E-01 -1.93687449E-01  5.86151122E-01
Cartesian Gradient                         R   N=           9
  0.00000000E+00  0.00000000E+00  0.00000000E+00  0.00000000E+00  0.00000000E+00
  0.00000000E+00  0.00000000E+00  0.00000000E+00  0.00000000E+00
Dipole Moment                              R   N=           3
  5.46423145E-01 -1.25137695E-16  3.86381228E-01
Mulliken Charges                           R   N=           3
 -3.81897766E-01  1.90948904E-01  1.90948861E-01
