water atcharges                                                         
SP        RHF                                                         6-31G               
Number of atoms                            I                3
Info1-9                                    I   N=           9
          15          12           0           0           0         110
           1           1           2
Full Title                                 C   N=           2
water atcharges         
Route                                      C   N=          10
#p hf/6-31G sp scf=(maxcycle=900,verytightlineq,xqc) integra
l=grid=ultrafine symmetry=None pop=(cm5,hlygat,mbs,npa)     
Charge                                     I                0
Multiplicity                               I                1
Number of electrons                        I               10
Number of alpha electrons                  I                5
Number of beta electrons                   I                5
Number of basis functions                  I               13
Number of independent functions            I               13
Number of point charges in /Mol/           I                0
Number of translation vectors              I                0
Atomic numbers                             I   N=           3
           8           1           1
Nuclear charges                            R   N=           3
  8.00000000E+00  1.00000000E+00  1.00000000E+00
Current cartesian coordinates              R   N=           9
 -5.53874655E+00 -4.08958344E-01  0.00000000E+00 -6.90736427E+00  2.72294764E+00
  0.00000000E+00 -2.14148544E+00  1.45385191E-01  0.00000000E+00
Number of symbols in /Mol/                 I                0
Int Atom Types                             I   N=           3
           0           0           0
Force Field                                I                0
Atom Types                                 C   N=           3
                                    
MM charges                                 R   N=           3
  0.00000000E+00  0.00000000E+00  0.00000000E+00
Integer atomic weights                     I   N=           3
          16           1           1
Real atomic weights                        R   N=           3
  1.59949146E+01  1.00782504E+00  1.00782504E+00
Atom fragment info                         I   N=           3
           0           0           0
Atom residue num                           I   N=           3
           0           0           0
Nuclear spins                              I   N=           3
           0           1           1
Nuclear ZEff                               R   N=           3
 -5.60000000E+00 -1.00000000E+00 -1.00000000E+00
Nuclear ZNuc                               R   N=           3
  8.00000000E+00  1.00000000E+00  1.00000000E+00
Nuclear QMom                               R   N=           3
  0.00000000E+00  0.00000000E+00  0.00000000E+00
Nuclear GFac                               R   N=           3
  0.00000000E+00  2.79284600E+00  2.79284600E+00
MicOpt                                     I   N=           3
          -1          -1          -1
Number of residues                         I                0
Number of secondary structures             I                0
Number of contracted shells                I                7
Number of primitive shells                 I               18
Pure/Cartesian d shells                    I                1
Pure/Cartesian f shells                    I                0
Highest angular momentum                   I                1
Largest degree of contraction              I                6
Shell types                                I   N=           7
           0          -1          -1           0           0           0
           0
Number of primitives per shell             I   N=           7
           6           3           1           3           1           3
           1
Shell to atom map                          I   N=           7
           1           1           1           2           2           3
           3
Primitive exponents                        R   N=          18
  5.48467166E+03  8.25234946E+02  1.88046958E+02  5.29645000E+01  1.68975704E+01
  5.79963534E+00  1.55396162E+01  3.59993359E+00  1.01376175E+00  2.70005823E-01
  1.87311370E+01  2.82539436E+00  6.40121692E-01  1.61277759E-01  1.87311370E+01
  2.82539436E+00  6.40121692E-01  1.61277759E-01
Contraction coefficients                   R   N=          18
  1.83107443E-03  1.39501722E-02  6.84450781E-02  2.32714336E-01  4.70192898E-01
  3.58520853E-01 -1.10777550E-01 -1.48026263E-01  1.13076702E+00  1.00000000E+00
  3.34946043E-02  2.34726953E-01  8.13757326E-01  1.00000000E+00  3.34946043E-02
  2.34726953E-01  8.13757326E-01  1.00000000E+00
P(S=P) Contraction coefficients            R   N=          18
  0.00000000E+00  0.00000000E+00  0.00000000E+00  0.00000000E+00  0.00000000E+00
  0.00000000E+00  7.08742682E-02  3.39752839E-01  7.27158577E-01  1.00000000E+00
  0.00000000E+00  0.00000000E+00  0.00000000E+00  0.00000000E+00  0.00000000E+00
  0.00000000E+00  0.00000000E+00  0.00000000E+00
Coordinates of each shell                  R   N=          21
 -5.53874655E+00 -4.08958344E-01  0.00000000E+00 -5.53874655E+00 -4.08958344E-01
  0.00000000E+00 -5.53874655E+00 -4.08958344E-01  0.00000000E+00 -6.90736427E+00
  2.72294764E+00  0.00000000E+00 -6.90736427E+00  2.72294764E+00  0.00000000E+00
 -2.14148544E+00  1.45385191E-01  0.00000000E+00 -2.14148544E+00  1.45385191E-01
  0.00000000E+00
Num ILSW                                   I              100
ILSW                                       I   N=         100
           0           1           0           0           2           0
           0           0           0           0           0          -1
           5           0           0           0           0           0
           0           0           0           0           0           0
           1           1           0           0           0           0
           0           0      100000           0          -1           0
           0           0           0           0           0           0
           0           0           0           1           0           0
           0 -2000000000           1           0           0           0
           0           0           4          52           0           0
           0           0           0           0           0           0
           0           0           0           3           0           1
           0           0           0           0           0           0
           0           0           0           0           0           0
           0           0           0           0           0           0
           0           0           0           0           0           0
           0           0           0           0
Num RLSW                                   I               52
RLSW                                       R   N=          52
  1.00000000E+00  1.00000000E+00  1.00000000E+00  1.00000000E+00  1.00000000E+00
  0.00000000E+00  0.00000000E+00  1.00000000E+00  0.00000000E+00  0.00000000E+00
  0.00000000E+00  0.00000000E+00  1.00000000E+00  0.00000000E+00  0.00000000E+00
  0.00000000E+00  0.00000000E+00  1.00000000E+00  0.00000000E+00  0.00000000E+00
  0.00000000E+00  0.00000000E+00  1.00000000E+00  0.00000000E+00  0.00000000E+00
  0.00000000E+00  0.00000000E+00  1.00000000E+00  0.00000000E+00  0.00000000E+00
  0.00000000E+00  0.00000000E+00  1.00000000E+00  0.00000000E+00  0.00000000E+00
  0.00000000E+00  0.00000000E+00  0.00000000E+00  1.00000000E+00  1.00000000E+00
  0.00000000E+00  1.00000000E+00  0.00000000E+00  0.00000000E+00  0.00000000E+00
  0.00000000E+00  0.00000000E+00  0.00000000E+00  0.00000000E+00  0.00000000E+00
  0.00000000E+00  0.00000000E+00
MxBond                                     I                1
NBond                                      I   N=           3
           0           0           0
IBond                                      I   N=           3
           0           0           0
RBond                                      R   N=           3
  0.00000000E+00  0.00000000E+00  0.00000000E+00
Virial Ratio                               R      2.011194871414563E+00
SCF Energy                                 R     -7.562730180595092E+01
Total Energy                               R     -7.562730180595092E+01
RMS Density                                R      4.182529560118482E-09
Job Status                                 I                1
Nuclear derivative order                   I                0
External E-field                           R   N=          35
  0.00000000E+00  0.00000000E+00  0.00000000E+00  0.00000000E+00  0.00000000E+00
  0.00000000E+00  0.00000000E+00  0.00000000E+00  0.00000000E+00  0.00000000E+00
  0.00000000E+00  0.00000000E+00  0.00000000E+00  0.00000000E+00  0.00000000E+00
  0.00000000E+00  0.00000000E+00  0.00000000E+00  0.00000000E+00  0.00000000E+00
  0.00000000E+00  0.00000000E+00  0.00000000E+00  0.00000000E+00  0.00000000E+00
  0.00000000E+00  0.00000000E+00  0.00000000E+00  0.00000000E+00  0.00000000E+00
  0.00000000E+00  0.00000000E+00  0.00000000E+00  0.00000000E+00  0.00000000E+00
IOpCl                                      I                0
IROHF                                      I                0
Alpha Orbital Energies                     R   N=          13
 -2.06699649E+01 -1.20134704E+00 -5.08560476E-01 -4.46812170E-01 -4.34275776E-01
 -7.79428952E-03  3.03563420E-02  9.37600604E-01  1.00976386E+00  1.15720781E+00
  1.22944126E+00  1.28872667E+00  1.38501542E+00
Alpha MO coefficients                      R   N=         169
  9.96015699E-01  1.97756823E-02  4.45969104E-04  8.36409875E-04  7.14964859E-17
 -4.72958689E-03 -3.06820464E-04 -5.80447063E-04 -6.57624568E-17  7.74465004E-06
  6.75326932E-04  4.70239835E-10  6.69012740E-04 -2.30016974E-01  5.35834473E-01
  1.12353289E-04  7.84789802E-04  1.97893033E-16  5.39733498E-01  6.44372972E-03
  1.25402167E-02 -2.54224632E-16  2.62664472E-02  1.95743996E-02  2.56661381E-02
  1.94517716E-02  3.48674314E-19  1.18137700E-16  1.31886706E-15 -1.10358808E-15
  6.77692819E-01 -2.45261670E-16  1.30213650E-15 -8.52938185E-16  4.70214877E-01
 -1.08712726E-15 -5.34678758E-16  8.77260361E-16  1.13965795E-15 -2.81100311E-03
  8.57295122E-03  3.70624851E-01 -2.44604897E-01 -2.48981384E-15  9.51362478E-03
  2.97092303E-01 -1.95618146E-01 -1.79348647E-15 -1.73132724E-01 -3.05519875E-01
  1.48891876E-01  2.63523997E-01  3.14296588E-02 -9.76655672E-02  2.54816160E-01
  3.95245878E-01 -1.28486806E-16 -1.02817252E-01  2.04696554E-01  3.16681162E-01
  1.06224400E-16  1.35855622E-01  2.49416996E-01  1.61469046E-01  2.96418183E-01
  3.90568833E-02 -8.22061201E-02 -2.06254042E-01 -3.51088724E-01 -5.59191838E-16
 -2.13903718E-01 -2.13747934E-01 -3.64686214E-01 -6.08424725E-17  1.68333215E-01
  4.86869652E-01  1.79833513E-01  5.15538611E-01  1.51445643E-03 -2.98226064E-03
  3.76576410E-01 -2.18879464E-01  1.29731030E-16 -9.61276733E-03  4.09259271E-01
 -2.38288888E-01  1.84533178E-17  1.87190804E-01  5.37675923E-01 -1.77017320E-01
 -5.03247416E-01 -2.28371456E-02  6.70684468E-02 -9.03858512E-02 -1.79940119E-01
 -6.33823120E-16  2.12189988E-01  1.46761802E-01  2.86870500E-01  3.82258185E-16
  8.97142154E-01 -8.33471204E-01  8.78500330E-01 -8.10591338E-01  6.43951581E-04
 -6.15938965E-03  1.63664400E-01 -9.10921782E-02 -6.93876788E-16  5.96794350E-03
 -3.46878413E-01  1.89265277E-01  1.65638588E-16  9.03295258E-01 -9.33369845E-01
 -9.25147732E-01  9.48497595E-01 -5.21383600E-16  5.55509380E-15 -1.66136467E-15
 -8.43262857E-15 -9.36364692E-01 -5.91378960E-15  1.61376138E-15  9.12598190E-15
  1.05590926E+00 -3.48135129E-15  1.67091546E-15 -1.57131405E-15  1.41357615E-15
 -3.41743883E-02  4.84988283E-01 -4.40757022E-01 -7.79755332E-01  9.25559241E-15
 -5.07868015E-01  4.69006563E-01  8.28600622E-01 -1.03133184E-14 -2.24907289E-01
  1.08716461E-01 -2.24701625E-01  1.01803904E-01  1.65689286E-03 -2.40848889E-02
 -8.53488005E-01  4.72885165E-01 -2.79523806E-15  2.59332218E-02  9.66548313E-01
 -5.34689704E-01  3.13495109E-15  2.05772667E-01  7.19352746E-02 -1.88941414E-01
 -8.82426867E-02  9.49816608E-02 -1.44719384E+00 -1.60922315E-01 -3.19778127E-01
 -8.17682253E-16  1.56617574E+00  2.12659925E-01  4.19991531E-01  6.90367110E-16
  3.45750724E-03 -3.09023763E-01  1.93143995E-02 -3.12169776E-01
Orthonormal basis                          R   N=         169
  1.04260234E-01  2.75963065E-01  4.35651620E-02  8.66407424E-02  0.00000000E+00
  3.31353614E-01  8.02535204E-02  1.59227493E-01 -2.88926248E-20  1.89342161E-01
  2.67949531E-01  1.81948958E-01  2.59304183E-01  2.11072341E-03  4.88724237E-03
  2.17902006E-01 -1.17214481E-01  0.00000000E+00  5.30268422E-03  3.45344586E-01
 -1.85592879E-01 -5.13956619E-17 -2.53743474E-01 -2.78150454E-01  2.59726568E-01
  2.87271879E-01  1.97249788E-01  3.69942871E-01 -1.44335856E-01 -2.66534177E-01
  1.60634975E-17  3.12978802E-01 -1.79658852E-01 -3.31527443E-01  1.19792514E-17
 -1.62436229E-01 -1.30162592E-01 -1.63722712E-01 -1.32481677E-01 -1.58763949E-17
 -6.94150601E-17  3.05375578E-17 -1.10194236E-17  5.77057836E-01  9.27694992E-17
 -5.93497381E-17 -1.47181958E-17  5.77057836E-01  1.19118789E-16 -2.21144309E-16
  2.55899080E-16 -5.33940871E-17  2.03311961E-01  2.10097041E-01  2.84200955E-01
  4.65765566E-01  2.45976908E-17  8.46966304E-02  1.83342339E-01  3.01095760E-01
  6.13307668E-17 -2.86762358E-01 -2.00741317E-01 -3.15904695E-01 -2.20088082E-01
 -1.25032428E-02 -1.10307309E-02  5.37665021E-01 -3.21720825E-01  4.40231864E-17
 -3.58223852E-03  2.95658637E-01 -1.77242029E-01  1.12047659E-16  3.44881773E-01
  2.21758159E-01 -3.17149187E-01 -2.02604572E-01  9.71800394E-01 -2.17341261E-01
 -3.78048830E-02 -7.51265123E-02  0.00000000E+00 -2.77185090E-01  3.81911994E-03
  7.25364361E-03 -1.59958040E-17  1.31986726E-01  1.69774960E-02  1.29155019E-01
  1.60407568E-02 -9.70776961E-17  5.23855301E-16 -1.11286050E-16 -2.60863873E-15
  1.00152416E+00 -3.15595220E-16  2.25089621E-16  2.69807273E-15 -1.00152416E+00
 -8.75756371E-16  8.64214258E-17  3.13216814E-16 -6.25999499E-16 -2.89947907E-03
  1.64935354E-02 -5.04732464E-01 -7.87738445E-01 -2.21803263E-15 -3.75937845E-02
  5.21080358E-01  8.15512671E-01  2.51407697E-15 -3.27813406E-01  1.02307038E-01
 -3.92443787E-01  1.26633006E-01  1.24290648E-03 -5.05048024E-03 -7.50387590E-01
  4.86960623E-01  1.52372994E-15  4.77554478E-03  7.84856645E-01 -5.11145807E-01
 -1.76798078E-15  4.88337070E-01 -1.68339811E-01 -4.34724015E-01  1.55509287E-01
 -1.28724269E-01  7.46168483E-01 -1.13523501E-01 -2.02667889E-01 -1.12387954E-15
 -3.95639500E-01  2.02406549E-01  3.66009079E-01  6.68752845E-16  6.81758833E-01
 -6.95554565E-01  6.78157755E-01 -6.92304252E-01 -7.95988645E-04  7.74696534E-03
  3.05325027E-01 -1.64821252E-01  5.30803354E-16 -5.06217065E-03 -6.68561707E-01
  3.62368449E-01 -3.97573002E-16  7.33723822E-01 -1.04230583E+00 -7.41958805E-01
  1.04863611E+00  7.70837027E-02 -1.33301405E+00 -6.90107288E-02 -1.32369695E-01
 -5.36193491E-16  1.62930154E+00  1.73684949E-01  3.34709679E-01 -3.94116091E-17
  3.63239995E-01 -7.03948810E-01  3.59126930E-01 -6.87626692E-01
Total SCF Density                          R   N=          91
  2.09190161E+00 -2.13295657E-01  5.94243438E-01  1.47706128E-02 -4.32807877E-02
  4.04588534E-01  2.75251812E-02 -8.05236815E-02  2.01176890E-02  4.32104351E-01
  5.77794756E-17  3.57433111E-16 -1.23373093E-16 -3.78883674E-16  9.18535113E-01
 -2.64233726E-01  5.98475098E-01 -4.52299600E-02 -8.50911058E-02 -1.40434434E-16
  6.03993028E-01  7.62130052E-03 -2.79962846E-02  3.24540735E-01  1.64800755E-02
  2.35392908E-16 -2.94811293E-02  2.60412263E-01  1.40809340E-02 -5.17957369E-02
  1.63913626E-02  3.46050873E-01 -2.58453090E-16 -5.53004084E-02  1.35757622E-02
  2.77422022E-01  3.03917166E-18 -2.15445308E-16 -3.50998811E-17 -7.69954484E-17
  6.37322491E-01 -5.60424930E-16  1.99157444E-16 -3.94726414E-17  4.42204062E-01
 -2.55488494E-03 -1.35610734E-03 -5.90922552E-02  1.92132213E-01 -6.35854478E-16
 -2.87715334E-03 -4.69159407E-02  1.54440402E-01 -3.85838238E-16  9.82432325E-02
  9.73620090E-03 -3.29533324E-02 -9.93505536E-02  3.46657248E-01  7.40429575E-16
 -3.59784129E-02 -7.91737572E-02  2.77991942E-01  6.36010641E-16  1.74588689E-01
  3.11869690E-01 -2.49453095E-03 -1.48144307E-03  1.92661670E-01  5.48408709E-02
  4.16265003E-16 -2.66485530E-03  1.54904346E-01  4.46602225E-02  3.12184594E-16
 -6.33484018E-03 -9.42780734E-03  9.77995879E-02  9.53533019E-03 -3.25090231E-02
  3.46406338E-01  1.05429260E-01  1.64047380E-16 -3.49484520E-02  2.78183737E-01
  8.51270396E-02  1.79510259E-16 -9.68723357E-03 -1.23977551E-02  1.75196390E-01
  3.15374910E-01
Mulliken Charges                           R   N=           3
 -3.91150532E-01  1.96895396E-01  1.94255137E-01
ESP Charges                                R   N=           3
 -4.47363368E-01  2.24922518E-01  2.22440849E-01
NPA Charges                                R   N=           3
 -4.98161654E-01  2.50757174E-01  2.47404480E-01
MBS Charges                                R   N=           3
 -2.90505882E-01  1.45850946E-01  1.44654936E-01
Type 6 Charges                             R   N=           3
 -3.37450356E-01  1.68988978E-01  1.68461239E-01
Type 7 Charges                             R   N=           3
 -3.77750403E-01  1.89459551E-01  1.88290713E-01
ONIOM Charges                              I   N=          16
           0           0           0           0           0           0
           0           0           0           0           0           0
           0           0           0           0
ONIOM Multiplicities                       I   N=          16
           1           0           0           0           0           0
           0           0           0           0           0           0
           0           0           0           0
Atom Layers                                I   N=           3
           1           1           1
Atom Modifiers                             I   N=           3
           0           0           0
Int Atom Modified Types                    I   N=           3
           0           0           0
Force Field                                I                0
Atom Modified Types                        C   N=           3
                                    
Link Atoms                                 I   N=           3
           0           0           0
Atom Modified MM Charges                   R   N=           3
  0.00000000E+00  0.00000000E+00  0.00000000E+00
Link Distances                             R   N=          12
  0.00000000E+00  0.00000000E+00  0.00000000E+00  0.00000000E+00  0.00000000E+00
  0.00000000E+00  0.00000000E+00  0.00000000E+00  0.00000000E+00  0.00000000E+00
  0.00000000E+00  0.00000000E+00
Cartesian Gradient                         R   N=           9
  0.00000000E+00  0.00000000E+00  0.00000000E+00  0.00000000E+00  0.00000000E+00
  0.00000000E+00  0.00000000E+00  0.00000000E+00  0.00000000E+00
Nonadiabatic coupling                      R   N=           9
  0.00000000E+00  0.00000000E+00  0.00000000E+00  0.00000000E+00  0.00000000E+00
  0.00000000E+00  0.00000000E+00  0.00000000E+00  0.00000000E+00
Dipole Moment                              R   N=           3
  4.29742853E-01  7.93714042E-01  2.89424748E-16
Quadrupole Moment                          R   N=           6
 -1.32532272E+00  1.87449664E+00 -5.49173918E-01 -5.26004180E+00 -2.02510843E-15
 -3.22171000E-16
QEq coupling tensors                       R   N=          18
 -2.01609156E+00  2.29777639E-01 -1.70195699E+00  0.00000000E+00  0.00000000E+00
  3.71804855E+00 -9.05517239E-03 -1.81615845E-02  2.21935293E-02  0.00000000E+00
  0.00000000E+00 -1.31383569E-02  2.99640433E-02  6.95355685E-03 -1.65413888E-02
  0.00000000E+00  0.00000000E+00 -1.34226545E-02
ClPar MaxAn                                I              200
ClPar NIntPar                              I                4
ClPar NRealPar                             I               16
ClPar NBits                                I               30
ClPar LenBitVec                            I                1
ClPar Read BitMap                          I   N=         200
           0           0           0           0           0           0
           0           0           0           0           0           0
           0           0           0           0           0           0
           0           0           0           0           0           0
           0           0           0           0           0           0
           0           0           0           0           0           0
           0           0           0           0           0           0
           0           0           0           0           0           0
           0           0           0           0           0           0
           0           0           0           0           0           0
           0           0           0           0           0           0
           0           0           0           0           0           0
           0           0           0           0           0           0
           0           0           0           0           0           0
           0           0           0           0           0           0
           0           0           0           0           0           0
           0           0           0           0           0           0
           0           0           0           0           0           0
           0           0           0           0           0           0
           0           0           0           0           0           0
           0           0           0           0           0           0
           0           0           0           0           0           0
           0           0           0           0           0           0
           0           0           0           0           0           0
           0           0           0           0           0           0
           0           0           0           0           0           0
           0           0           0           0           0           0
           0           0           0           0           0           0
           0           0           0           0           0           0
           0           0           0           0           0           0
           0           0           0           0           0           0
           0           0           0           0           0           0
           0           0           0           0           0           0
           0           0
ClPar Default BitMap                       I   N=         200
        2016        2016        2016        2016        2016        2016
        2016        2016        2016        2016        2016        2016
        2016        2016        2016        2016        2016        2016
        2016        2016        2016        2016        2016        2016
        2016        2016        2016        2016        2016        2016
        2016        2016        2016        2016        2016        2016
        2016        2016        2016        2016        2016        2016
        2016        2016        2016        2016        2016        2016
        2016        2016        2016        2016        2016        2016
        2016        2016        2016        2016        2016        2016
        2016        2016        2016        2016        2016        2016
        2016        2016        2016        2016        2016        2016
        2016        2016        2016        2016        2016        2016
        2016        2016        2016        2016        2016        2016
        2016        2016         480         480         480         480
         480         480         480         480         480         480
         480         480         480         480         480         480
         480         480         480         480         480         480
         480         480         480         480         480         480
         480         480         480         480         480         480
         480         480         480         480         480         480
         480         480         480         480         480         480
         480         480         480         480         480         480
         480         480         480         480         480         480
         480         480         480         480         480         480
         480         480         480         480         480         480
         480         480         480         480         480         480
         480         480         480         480         480         480
         480         480         480         480         480         480
         480         480         480         480         480         480
         480         480         480         480         480         480
         480         480         480         480         480         480
         480         480         480         480         480         480
         480         480
ClPar Int Params                           I   N=         800
           0           0           0           0           0           0
           0           0           0           0           0           0
           0           0           0           0           0           0
           0           0           0           0           0           0
           0           0           0           0           0           0
           0           0           0           0           0           0
           0           0           0           0           0           0
           0           0           0           0           0           0
           0           0           0           0           0           0
           0           0           0           0           0           0
           0           0           0           0           0           0
           0           0           0           0           0           0
           0           0           0           0           0           0
           0           0           0           0           0           0
           0           0           0           0           0           0
           0           0           0           0           0           0
           0           0           0           0           0           0
           0           0           0           0           0           0
           0           0           0           0           0           0
           0           0           0           0           0           0
           0           0           0           0           0           0
           0           0           0           0           0           0
           0           0           0           0           0           0
           0           0           0           0           0           0
           0           0           0           0           0           0
           0           0           0           0           0           0
           0           0           0           0           0           0
           0           0           0           0           0           0
           0           0           0           0           0           0
           0           0           0           0           0           0
           0           0           0           0           0           0
           0           0           0           0           0           0
           0           0           0           0           0           0
           0           0           0           0           0           0
           0           0           0           0           0           0
           0           0           0           0           0           0
           0           0           0           0           0           0
           0           0           0           0           0           0
           0           0           0           0           0           0
           0           0           0           0           0           0
           0           0           0           0           0           0
           0           0           0           0           0           0
           0           0           0           0           0           0
           0           0           0           0           0           0
           0           0           0           0           0           0
           0           0           0           0           0           0
           0           0           0           0           0           0
           0           0           0           0           0           0
           0           0           0           0           0           0
           0           0           0           0           0           0
           0           0           0           0           0           0
           0           0           0           0           0           0
           0           0           0           0           0           0
           0           0           0           0           0           0
           0           0           0           0           0           0
           0           0           0           0           0           0
           0           0           0           0           0           0
           0           0           0           0           0           0
           0           0           0           0           0           0
           0           0           0           0           0           0
           0           0           0           0           0           0
           0           0           0           0           0           0
           0           0           0           0           0           0
           0           0           0           0           0           0