water
SP        RHFS                                                        3-21G
Number of atoms                            I                3
Charge                                     I                0
Multiplicity                               I                1
Number of electrons                        I               10
Number of alpha electrons                  I                5
Number of beta electrons                   I                5
Number of basis functions                  I               13
Number of independent functions            I               13
Atomic numbers                             I   N=           3
           1           8           1
Nuclear charges                            R   N=           3
  1.00000000E+00  8.00000000E+00  1.00000000E+00
Current cartesian coordinates              R   N=           9
  0.00000000E+00  1.48123726E+00 -8.37913638E-01  0.00000000E+00  0.00000000E+00
  2.09478410E-01 -1.81399247E-16 -1.48123726E+00 -8.37913638E-01
Number of contracted shells                I                7
Number of primitive shells                 I               12
Shell types                                I   N=           7
           0           0           0          -1          -1           0
           0
Number of primitives per shell             I   N=           7
           2           1           3           2           1           2
           1
Shell to atom map                          I   N=           7
           1           1           2           2           2           3
           3
Primitive exponents                        R   N=          12
  5.44717800E+00  8.24547240E-01  1.83191580E-01  3.22037000E+02  4.84308000E+01
  1.04206000E+01  7.40294000E+00  1.57620000E+00  3.73684000E-01  5.44717800E+00
  8.24547240E-01  1.83191580E-01
Contraction coefficients                   R   N=          12
  1.56284979E-01  9.04690877E-01  1.00000000E+00  5.92393934E-02  3.51499961E-01
  7.07657921E-01 -4.04453583E-01  1.22156176E+00  1.00000000E+00  1.56284979E-01
  9.04690877E-01  1.00000000E+00
P(S=P) Contraction coefficients            R   N=          12
  0.00000000E+00  0.00000000E+00  0.00000000E+00  0.00000000E+00  0.00000000E+00
  0.00000000E+00  2.44586107E-01  8.53955373E-01  1.00000000E+00  0.00000000E+00
  0.00000000E+00  0.00000000E+00
Coordinates of each shell                  R   N=          21
  0.00000000E+00  1.48123726E+00 -8.37913638E-01  0.00000000E+00  1.48123726E+00
 -8.37913638E-01  0.00000000E+00  3.94160096E-49  2.09478410E-01  0.00000000E+00
  3.94160096E-49  2.09478410E-01  0.00000000E+00  3.94160096E-49  2.09478410E-01
 -1.81399247E-16 -1.48123726E+00 -8.37913638E-01 -1.81399247E-16 -1.48123726E+00
 -8.37913638E-01
Virial Ratio                               R      1.993231594111362E+00
SCF Energy                                 R     -7.474134898935590E+01
Total Energy                               R     -7.474134898935590E+01
RMS Density                                R      3.343052553844030E-10
Alpha Orbital Energies                     R   N=          13
 -1.83691041E+01 -8.29412411E-01 -4.04495188E-01 -1.91740814E-01 -1.32190590E-01
  1.16030419E-01  2.08119657E-01  9.69825207E-01  9.99248500E-01  1.41697384E+00
  1.47918828E+00  1.61926596E+00  2.71995350E+00
Alpha MO coefficients                      R   N=         169
  2.45957257E-03  7.94448304E-03  9.81052071E-01  1.08102969E-01  0.00000000E+00
  0.00000000E+00 -3.53775454E-03 -4.43330566E-02  0.00000000E+00  0.00000000E+00
  6.96549921E-03  2.45957257E-03  7.94448304E-03  1.26299037E-01  3.66292069E-02
 -2.24563378E-01  2.07718162E-01  0.00000000E+00  0.00000000E+00 -1.29584781E-01
  6.64945676E-01  0.00000000E+00  0.00000000E+00 -1.19804764E-01  1.26299037E-01
  3.66292069E-02  2.30879961E-01  2.10516997E-01  0.00000000E+00  0.00000000E+00
  0.00000000E+00  4.11424566E-01  0.00000000E+00  0.00000000E+00  0.00000000E+00
  3.31945215E-01  0.00000000E+00 -2.30879961E-01 -2.10516997E-01 -1.15380291E-01
 -1.27563661E-01 -1.08702678E-01  8.63653388E-02  0.00000000E+00  0.00000000E+00
  4.40252680E-01  4.90948762E-01  0.00000000E+00  0.00000000E+00  4.91028344E-01
 -1.15380291E-01 -1.27563661E-01  0.00000000E+00  0.00000000E+00  0.00000000E+00
  0.00000000E+00  5.21882775E-01  0.00000000E+00  0.00000000E+00  0.00000000E+00
  6.31550501E-01  0.00000000E+00  0.00000000E+00  0.00000000E+00  0.00000000E+00
 -9.07308400E-02 -8.27176848E-01 -1.16172318E-01  6.34647184E-02  0.00000000E+00
  0.00000000E+00 -2.55629223E-01  1.01491863E+00  0.00000000E+00  0.00000000E+00
 -4.39453588E-01 -9.07308400E-02 -8.27176848E-01  8.10720181E-02  1.08722305E+00
  0.00000000E+00  0.00000000E+00  0.00000000E+00 -3.77415449E-01  0.00000000E+00
  0.00000000E+00  0.00000000E+00 -7.37563515E-01  0.00000000E+00 -8.10720181E-02
 -1.08722305E+00  9.61161017E-01 -7.63090407E-01  0.00000000E+00  0.00000000E+00
  0.00000000E+00 -2.35939276E-01  0.00000000E+00  0.00000000E+00  0.00000000E+00
 -3.30939714E-01  0.00000000E+00 -9.61161017E-01  7.63090407E-01  9.56454573E-01
 -5.46795845E-01  5.90874979E-02 -8.79495397E-02  0.00000000E+00  0.00000000E+00
  2.96413051E-01 -3.05591632E-02  0.00000000E+00  0.00000000E+00  1.88788930E-01
  9.56454573E-01 -5.46795845E-01  0.00000000E+00  0.00000000E+00  0.00000000E+00
  0.00000000E+00  1.02897299E+00  0.00000000E+00  0.00000000E+00  0.00000000E+00
 -9.65552183E-01  0.00000000E+00  0.00000000E+00  0.00000000E+00  0.00000000E+00
  2.92714897E-01  8.83088407E-02  4.95030119E-02 -1.02383218E-01  0.00000000E+00
  0.00000000E+00 -9.92429451E-01 -2.32155723E-01  0.00000000E+00  0.00000000E+00
  1.16281569E+00  2.92714897E-01  8.83088407E-02 -2.21249988E-01 -5.10463691E-01
  0.00000000E+00  0.00000000E+00  0.00000000E+00 -1.02971183E+00  0.00000000E+00
  0.00000000E+00  0.00000000E+00  1.49742979E+00  0.00000000E+00  2.21249988E-01
  5.10463691E-01 -2.60619201E-01 -3.74303318E-01  9.26693011E-02 -1.64115439E+00
  0.00000000E+00  0.00000000E+00  1.23918819E-01  1.98839307E+00  0.00000000E+00
  0.00000000E+00 -4.44335698E-01 -2.60619201E-01 -3.74303318E-01
Total SCF Density                          R   N=          91
  1.65151328E-01  1.35936524E-01  1.23989414E-01 -2.68140459E-02  2.68697692E-02
  2.04941630E+00  3.30712658E-02 -5.09941008E-03  1.00041212E-01  1.24584117E-01
 -2.31111593E-33 -1.54074396E-33  0.00000000E+00  0.00000000E+00  5.44723262E-01
  1.89979375E-01  1.73223728E-01  0.00000000E+00  0.00000000E+00  3.08148791E-33
  3.38540347E-01 -1.34343233E-01 -1.21869874E-01 -4.44547408E-02  2.14460350E-02
  0.00000000E+00  7.20584733E-49  4.21254307E-01  5.44542939E-02 -7.72459835E-02
 -4.92365858E-01  3.51459429E-01  0.00000000E+00  4.45197953E-49  2.60263015E-01
  1.37029772E+00 -1.54074396E-33 -1.54074396E-33  0.00000000E+00  0.00000000E+00
  6.59190656E-01  3.08148791E-33 -2.86093629E-65  0.00000000E+00  7.97712072E-01
  1.53278996E-01  1.39760219E-01  0.00000000E+00  0.00000000E+00  3.08148791E-33
  2.73140832E-01 -5.13948988E-49  0.00000000E+00  9.24446373E-33  2.20375251E-01
 -1.43538175E-01 -1.33940778E-01 -3.92776319E-02  3.65503902E-02  0.00000000E+00
  7.92598415E-49  4.63353553E-01  3.22194592E-01  0.00000000E+00  8.74137011E-49
  5.11021069E-01 -4.80708972E-02 -5.84801002E-02 -2.68140459E-02  3.30712658E-02
  2.31111593E-33 -1.89979375E-01 -1.34343233E-01  5.44542939E-02  1.54074396E-33
 -1.53278996E-01 -1.43538175E-01  1.65151328E-01 -5.84801002E-02 -5.32802095E-02
  2.68697692E-02 -5.09941008E-03  1.54074396E-33 -1.73223728E-01 -1.21869874E-01
 -7.72459835E-02  1.54074396E-33 -1.39760219E-01 -1.33940778E-01  1.35936524E-01
  1.23989414E-01
Mulliken Charges                           R   N=           3
  3.28089316E-01 -6.56178632E-01  3.28089316E-01
Dipole Moment                              R   N=           3
 -5.82654324E-17  0.00000000E+00 -8.60777067E-01
Quadrupole Moment                          R   N=           6
 -8.89536026E-01  1.14114241E+00 -2.51606382E-01  8.28408371E-17  4.89353090E-17
 -5.47382213E-48
Polarizability                             R   N=           6
  7.23806684E+00  6.06514838E-11  8.04213953E+00  1.42180046E-10  1.20021770E-10
  6.89222663E+00
