[Molden Format]                                                                 
[ATOMS] AU                                                                      
H        1    1        0.0000000000        0.0000000000        0.0000000000     
[Molden Format]                                                                 
[GTO]                                                                           
  1 0
d   1 1.00
  0.500000000000000        1.00000000000000                                     
 
                                                                                
[MO]
 Sym= A
 Ene= -5.180222245094024E-002
 Spin= Alpha
 Occup= 0.0
  1        0.2581988897
  2        0.2581988897
  3        0.2581988897
  4        0.0000000000
  5        0.0000000000
  6        0.0000000000
 Sym= A
 Ene=   1.14819777754906     
 Spin= Alpha
 Occup= 0.0
  1        0.0000000000
  2        0.0000000000
  3        0.0000000000
  4        1.0000000000
  5        0.0000000000
  6        0.0000000000
 Sym= A
 Ene=   1.14819777754906     
 Spin= Alpha
 Occup= 0.0
  1        0.0000000000
  2        0.0000000000
  3        0.0000000000
  4        0.0000000000
  5        1.0000000000
  6        0.0000000000
 Sym= A
 Ene=   1.14819777754906     
 Spin= Alpha
 Occup= 0.0
  1        0.0000000000
  2        0.0000000000
  3        0.0000000000
  4        0.0000000000
  5        0.0000000000
  6        1.0000000000
 Sym= A
 Ene=   1.14819777754906     
 Spin= Alpha
 Occup= 0.0
  1        0.5483667316
  2       -0.4306136881
  3       -0.1177530435
  4        0.0000000000
  5        0.0000000000
  6        0.0000000000
 Sym= A
 Ene=   1.14819777754906     
 Spin= Alpha
 Occup= 0.0
  1        0.1806301774
  2        0.3845844315
  3       -0.5652146089
  4        0.0000000000
  5        0.0000000000
  6        0.0000000000
 Sym= A
 Ene= -5.180222245094024E-002
 Spin= Beta
 Occup= 0.0
  1        0.2581988897
  2        0.2581988897
  3        0.2581988897
  4        0.0000000000
  5        0.0000000000
  6        0.0000000000
 Sym= A
 Ene=   1.14819777754906     
 Spin= Beta
 Occup= 0.0
  1        0.0000000000
  2        0.0000000000
  3        0.0000000000
  4        1.0000000000
  5        0.0000000000
  6        0.0000000000
 Sym= A
 Ene=   1.14819777754906     
 Spin= Beta
 Occup= 0.0
  1        0.0000000000
  2        0.0000000000
  3        0.0000000000
  4        0.0000000000
  5        1.0000000000
  6        0.0000000000
 Sym= A
 Ene=   1.14819777754906     
 Spin= Beta
 Occup= 0.0
  1        0.0000000000
  2        0.0000000000
  3        0.0000000000
  4        0.0000000000
  5        0.0000000000
  6        1.0000000000
 Sym= A
 Ene=   1.14819777754906     
 Spin= Beta
 Occup= 0.0
  1        0.5483667316
  2       -0.4306136881
  3       -0.1177530435
  4        0.0000000000
  5        0.0000000000
  6        0.0000000000
 Sym= A
 Ene=   1.14819777754906     
 Spin= Beta
 Occup= 0.0
  1        0.1806301774
  2        0.3845844315
  3       -0.5652146089
  4        0.0000000000
  5        0.0000000000
  6        0.0000000000
