unknown system
  0.5291772082999999
    15.000000    0.000000    0.000000
     1.000000   15.000000    0.000000
     0.000000    0.000000   15.000000
   O    H
     1     2
Direct
  0.000000  0.000000  0.000000
  0.074983  0.903122  0.000000
  0.074983  0.096878  0.000000

   3   3   3
 0.40148479136E+04 0.36943875006E+04 0.32256371491E+04 0.26517347371E+04 0.20229627264E+04
 0.14280432050E+04 0.95403906707E+03 0.62708207160E+03 0.40959936965E+03 0.26797990331E+03
 0.17874176893E+03 0.12144694350E+03 0.82068040565E+02 0.53864269470E+02 0.35008422471E+02
 0.23597320842E+02 0.16192639384E+02 0.10659924200E+02 0.71068008907E+01 0.53150877911E+01
 0.38261401017E+01 0.21159902927E+01 0.11897270730E+01 0.12920689698E+01 0.11919371909E+01
 0.39373081947E+00 -.43022261178E-01
augment bla bla
