 &FCI NORB=  4,NELEC=  2,MS2= 0,
  ORBSYM=1,1,5,5,
  ISYM=1,
 /
  0.6527679278914691E+00   1   1   1   1
  0.1666401243252308E+00   2   1   1   1
  0.1142822981519772E+00   2   1   2   1
  0.5608015013949392E+00   2   2   1   1
  0.1327270537244331E+00   2   2   2   1
  0.5069682194593456E+00   2   2   2   2
  0.4555405310117242E+00   3   3   1   1
  0.5559242074265885E-01   3   3   2   1
  0.4090763867662524E+00   3   3   2   2
  0.4101163250085093E+00   3   3   3   3
  0.1434715887012486E+00   4   3   1   1
  0.7756042287284058E-01   4   3   2   1
  0.1081919945126248E+00   4   3   2   2
  0.5881338509121858E-01   4   3   3   3
  0.7168567606836465E-01   4   3   4   3
  0.6676184556956147E+00   4   4   1   1
  0.2034643554040984E+00   4   4   2   1
  0.5861927557801957E+00   4   4   2   2
  0.4677330334812023E+00   4   4   3   3
  0.1705149708933022E+00   4   4   4   3
  0.7484308847738417E+00   4   4   4   4
  0.8898035827723823E-01   3   1   3   1
 -0.1679014526989577E-01   3   2   3   1
  0.3540283407894479E-01   3   2   3   2
  0.8008323271089922E-01   4   1   3   1
  0.2686145118409264E-01   4   1   3   2
  0.1312328354991786E+00   4   1   4   1
  0.9318930172623524E-01   4   2   3   1
  0.7188931576249293E-02   4   2   3   2
  0.1256266566886892E+00   4   2   4   1
  0.1412393072545486E+00   4   2   4   2
 -0.1245406261597530E+01   1   1   0   0
 -0.1666402467335385E+00   2   1   0   0
 -0.8704107641632230E-01   2   2   0   0
 -0.5579138857358200E+00   3   3   0   0
 -0.2068599446915979E+00   4   3   0   0
  0.3216193420753873E+00   4   4   0   0
  0.7151043364864863E+00   0   0   0   0
