[Molden Format]
[Title]
 Molden file created by orca_2mkl for BaseName=h2o

[Atoms] AU
O    1   8          0.0000000000         0.1582268966         0.1582268966
H    2   1          0.0000000000         1.9123825806        -0.1808833432
H    3   1          0.0000000000        -0.1808833432         1.9123825806
[GTO]
  1 0
s   6 1.0
     8588.5000000000         1.2050128859
     1297.2300000000         2.2162047744
      299.2960000000         3.6274524983
       87.3771000000         4.8884523076
       25.6789000000         4.8357205177
        3.7400400000         0.5382294948
s   3 1.0
       42.1175000000         1.3419577961
        9.6283700000         3.5871143115
        2.8533200000        -0.0051234679
p   3 1.0
       42.1175000000         5.5840175343
        9.6283700000         5.7333656931
        2.8533200000         4.3329547351
s   1 1.0
        0.9056610000         0.6616591794
p   1 1.0
        0.9056610000         1.2593521004
s   1 1.0
        0.2556110000         0.2562092156
p   1 1.0
        0.2556110000         0.2590684413

  2 0
s   3 1.0
       33.8650000000         0.2550693200
        5.0947900000         0.4601086622
        1.1587900000         0.6783214465
s   1 1.0
        0.3258400000         0.3073713539
s   1 1.0
        0.1027410000         0.1293355558

  3 0
s   3 1.0
       33.8650000000         0.2550693200
        5.0947900000         0.4601086622
        1.1587900000         0.6783214465
s   1 1.0
        0.3258400000         0.3073713539
s   1 1.0
        0.1027410000         0.1293355558

[5D]
[9G]
[MO]
 Sym=     1a
 Ene= -2.05452649092971E+01
 Spin= Alpha
 Occup= 2.000000
  1      -0.551426549257
  2      -0.471671821331
  3      -0.000000000000
  4      -0.001740054589
  5      -0.001740054589
  6      -0.005577939574
  7       0.000000000000
  8       0.000637729795
  9       0.000637729795
 10       0.000196524684
 11      -0.000000000000
 12      -0.000231869627
 13      -0.000231869627
 14      -0.000200430560
 15       0.000105985597
 16      -0.000110965980
 17      -0.000200430560
 18       0.000105985597
 19      -0.000110965980
 Sym=     1a
 Ene= -1.35700441302382E+00
 Spin= Alpha
 Occup= 2.000000
  1      -0.113481403918
  2      -0.190435765161
  3      -0.000000000000
  4       0.028305445081
  5       0.028305445081
  6       0.544375669125
  7       0.000000000000
  8       0.062534103373
  9       0.062534103373
 10       0.438819740809
 11      -0.000000000000
 12       0.036242156432
 13       0.036242156432
 14       0.099859960615
 15       0.039072807814
 16      -0.003959648396
 17       0.099859960615
 18       0.039072807814
 19      -0.003959648396
 Sym=     1a
 Ene= -7.31301585753945E-01
 Spin= Alpha
 Occup= 2.000000
  1      -0.000000000000
  2      -0.000000000000
  3      -0.000000000000
  4      -0.156127383207
  5       0.156127383207
  6       0.000000000000
  7       0.000000000000
  8      -0.260608066797
  9       0.260608066797
 10       0.000000000000
 11      -0.000000000000
 12      -0.151904944357
 13       0.151904944357
 14      -0.162166209066
 15      -0.195768850709
 16      -0.046133204178
 17       0.162166209066
 18       0.195768850709
 19       0.046133204178
 Sym=     1a
 Ene= -5.51757273535935E-01
 Spin= Alpha
 Occup= 2.000000
  1       0.038526990867
  2       0.065223446421
  3       0.000000000000
  4       0.181612292231
  5       0.181612292231
  6      -0.199330488160
  7      -0.000000000000
  8       0.274425154507
  9       0.274425154507
 10      -0.264243201126
 11       0.000000000000
 12       0.283663481718
 13       0.283663481718
 14       0.084071392999
 15       0.092933047819
 16       0.031357830624
 17       0.084071392999
 18       0.092933047819
 19       0.031357830624
 Sym=     1a
 Ene= -5.01318358017878E-01
 Spin= Alpha
 Occup= 2.000000
  1       0.000000000000
  2       0.000000000000
  3      -0.292441774853
  4      -0.000000000000
  5       0.000000000000
  6      -0.000000000000
  7      -0.439827822085
  8      -0.000000000000
  9       0.000000000000
 10       0.000000000000
 11      -0.488515803388
 12      -0.000000000000
 13       0.000000000000
 14       0.000000000000
 15      -0.000000000000
 16       0.000000000000
 17      -0.000000000000
 18       0.000000000000
 19      -0.000000000000
 Sym=     1a
 Ene= 1.45164468718922E-01
 Spin= Alpha
 Occup= 0.000000
  1       0.034530838427
  2       0.056448799614
  3      -0.000000000000
  4      -0.051797498086
  5      -0.051797498086
  6      -0.107898545157
  7       0.000000000000
  8      -0.087097285029
  9      -0.087097285029
 10      -0.885673051556
 11      -0.000000000000
 12      -0.144358612605
 13      -0.144358612605
 14       0.038270025639
 15      -0.030652817401
 16       0.836975846492
 17       0.038270025639
 18      -0.030652817401
 19       0.836975846493
 Sym=     1a
 Ene= 2.13903403868483E-01
 Spin= Alpha
 Occup= 0.000000
  1       0.000000000000
  2       0.000000000000
  3       0.000000000000
  4      -0.085151299827
  5       0.085151299827
  6      -0.000000000000
  7       0.000000000000
  8      -0.098400021973
  9       0.098400021973
 10      -0.000000000000
 11      -0.000000000000
 12      -0.363294291404
 13       0.363294291404
 14       0.020381029209
 15      -0.108223222523
 16       1.526278108050
 17      -0.020381029209
 18       0.108223222523
 19      -1.526278108050
 Sym=     1a
 Ene= 5.82793421357626E-01
 Spin= Alpha
 Occup= 0.000000
  1      -0.000000000006
  2      -0.000000000010
  3      -0.000000000000
  4      -0.092857332384
  5       0.092857332407
  6       0.000000000025
  7      -0.000000000000
  8      -0.139201526612
  9       0.139201526649
 10       0.000000000206
 11       0.000000000000
 12      -0.862252232992
 13       0.862252233210
 14       0.076658713940
 15       1.524111087525
 16      -0.741411579503
 17      -0.076658713968
 18      -1.524111088098
 19       0.741411579715
 Sym=     1a
 Ene= 5.82996191629114E-01
 Spin= Alpha
 Occup= 0.000000
  1      -0.032995686169
  2      -0.057398268035
  3       0.000000000000
  4       0.067423217144
  5       0.067423217112
  6       0.142763865185
  7      -0.000000000000
  8       0.108740614775
  9       0.108740614727
 10       1.199578317418
 11       0.000000000000
 12       0.633271484002
 13       0.633271483705
 14      -0.079425116992
 15      -1.666126505308
 16       0.615097960672
 17      -0.079425116966
 18      -1.666126504784
 19       0.615097960417
 Sym=     1a
 Ene= 1.00216372816337E+00
 Spin= Alpha
 Occup= 0.000000
  1       0.000000000000
  2       0.000000000000
  3      -0.240820866199
  4       0.000000000000
  5       0.000000000000
  6      -0.000000000000
  7      -0.838037009534
  8       0.000000000000
  9       0.000000000000
 10      -0.000000000000
 11       1.136180021042
 12      -0.000000000000
 13      -0.000000000000
 14       0.000000000000
 15       0.000000000000
 16       0.000000000000
 17       0.000000000000
 18       0.000000000000
 19       0.000000000000
 Sym=     1a
 Ene= 1.02046981086094E+00
 Spin= Alpha
 Occup= 0.000000
  1      -0.015557451376
  2      -0.026779279509
  3      -0.000000000000
  4      -0.163383446862
  5      -0.163383446862
  6       0.084848188845
  7      -0.000000000000
  8      -0.596547262839
  9      -0.596547262838
 10       0.350785601121
 11       0.000000000000
 12       0.949468561726
 13       0.949468561726
 14      -0.045466513210
 15      -0.247768274991
 16      -0.094683095607
 17      -0.045466513210
 18      -0.247768274991
 19      -0.094683095607
 Sym=     1a
 Ene= 1.15362965368126E+00
 Spin= Alpha
 Occup= 0.000000
  1      -0.000000000000
  2      -0.000000000000
  3       0.000000000000
  4      -0.166916673052
  5       0.166916673052
  6       0.000000000000
  7       0.000000000000
  8      -0.643455476688
  9       0.643455476688
 10       0.000000000000
 11      -0.000000000000
 12       1.250991497987
 13      -1.250991497987
 14      -0.034114691201
 15      -0.213985960940
 16      -0.747692284760
 17       0.034114691201
 18       0.213985960940
 19       0.747692284760
 Sym=     1a
 Ene= 1.43226016117615E+00
 Spin= Alpha
 Occup= 0.000000
  1       0.119026409753
  2       0.251198164776
  3       0.000000000000
  4      -0.026861725823
  5      -0.026861725823
  6      -1.818838799321
  7      -0.000000000000
  8      -0.076139287223
  9      -0.076139287223
 10       2.822522265028
 11      -0.000000000000
 12       0.450072606003
 13       0.450072606003
 14      -0.005193322775
 15      -0.593206301722
 16      -0.362036080678
 17      -0.005193322775
 18      -0.593206301722
 19      -0.362036080677
 Sym=     1a
 Ene= 2.45183088007627E+00
 Spin= Alpha
 Occup= 0.000000
  1      -0.011889698735
  2      -0.013500377757
  3       0.000000000000
  4       0.103989190866
  5       0.103989190866
  6      -0.084019341568
  7      -0.000000000000
  8       0.023499662193
  9       0.023499662193
 10      -0.488715297667
 11       0.000000000000
 12      -0.254840837325
 13      -0.254840837325
 14      -1.093008766195
 15       1.595836797283
 16      -0.488050002859
 17      -1.093008766195
 18       1.595836797283
 19      -0.488050002860
 Sym=     1a
 Ene= 2.51893915294796E+00
 Spin= Alpha
 Occup= 0.000000
  1      -0.000000000000
  2      -0.000000000000
  3       0.000000000000
  4       0.137749147972
  5      -0.137749147972
  6       0.000000000000
  7       0.000000000000
  8      -0.011829223393
  9       0.011829223393
 10      -0.000000000000
 11      -0.000000000000
 12      -0.237911117969
 13       0.237911117969
 14      -1.107230303312
 15       1.637967512483
 16      -0.764339546446
 17       1.107230303311
 18      -1.637967512483
 19       0.764339546446
 Sym=     1a
 Ene= 5.30956954734607E+00
 Spin= Alpha
 Occup= 0.000000
  1      -0.000000000000
  2      -0.000000000000
  3       1.270305377853
  4      -0.000000000000
  5      -0.000000000000
  6       0.000000000000
  7      -1.369690794909
  8       0.000000000000
  9       0.000000000000
 10      -0.000000000000
 11       0.523697956964
 12      -0.000000000000
 13      -0.000000000000
 14      -0.000000000000
 15       0.000000000000
 16       0.000000000000
 17      -0.000000000000
 18       0.000000000000
 19      -0.000000000000
 Sym=     1a
 Ene= 5.41113503788951E+00
 Spin= Alpha
 Occup= 0.000000
  1      -0.004275274130
  2      -0.010510313204
  3      -0.000000000000
  4      -0.899953993566
  5      -0.899953993567
  6       0.073593837561
  7       0.000000000000
  8       0.995066360966
  9       0.995066360967
 10      -0.300340899343
 11      -0.000000000000
 12      -0.462141388365
 13      -0.462141388366
 14      -0.212385186496
 15       0.316386056645
 16      -0.014697696621
 17      -0.212385186496
 18       0.316386056645
 19      -0.014697696621
 Sym=     1a
 Ene= 5.58186403575830E+00
 Spin= Alpha
 Occup= 0.000000
  1       0.000000000000
  2       0.000000000000
  3       0.000000000000
  4       0.907785166473
  5      -0.907785166473
  6      -0.000000000000
  7      -0.000000000000
  8      -1.055424840653
  9       1.055424840653
 10       0.000000000000
 11       0.000000000000
 12       0.592996066819
 13      -0.592996066819
 14       0.286810059938
 15      -0.353399891457
 16      -0.150042965884
 17      -0.286810059938
 18       0.353399891457
 19       0.150042965884
 Sym=     1a
 Ene= 5.14374898354115E+01
 Spin= Alpha
 Occup= 0.000000
  1       2.246440349669
  2      -2.329021598326
  3      -0.000000000000
  4      -0.003000763201
  5      -0.003000763201
  6       0.243294878828
  7       0.000000000000
  8       0.009247978606
  9       0.009247978606
 10      -0.240555528394
 11      -0.000000000000
 12      -0.031252417868
 13      -0.031252417868
 14      -0.006371949939
 15       0.038602054584
 16       0.032438936086
 17      -0.006371949938
 18       0.038602054584
 19       0.032438936086
