 H2O Optimization
GAUSSIAN              5 MOL ORBITALS     21 PRIMITIVES        3 NUCLEI
  O    1    (CENTRE  1)  -4.40977963  3.45012811  0.00000000  CHARGE =  8.0
  H    2    (CENTRE  2)  -2.58005157  3.50871395  0.00000000  CHARGE =  1.0
  H    3    (CENTRE  3)  -4.96532996  5.19446206  0.00000000  CHARGE =  1.0
CENTRE ASSIGNMENTS    1  1  1  1  1  1  1  1  1  1  1  1  1  1  1  2  2  2  3  3
CENTRE ASSIGNMENTS    3
TYPE ASSIGNMENTS      1  1  1  1  2  3  4  1  2  3  4  1  2  3  4  1  1  1  1  1
TYPE ASSIGNMENTS      1
EXPONENTS  0.1307093D+03 0.2380886D+02 0.6443608D+01 0.5033151D+01 0.5033151D+01
EXPONENTS  0.5033151D+01 0.5033151D+01 0.1169596D+01 0.1169596D+01 0.1169596D+01
EXPONENTS  0.1169596D+01 0.3803890D+00 0.3803890D+00 0.3803890D+00 0.3803890D+00
EXPONENTS  0.3425251D+01 0.6239137D+00 0.1688554D+00 0.3425251D+01 0.6239137D+00
EXPONENTS  0.1688554D+00
MO    1     MO 0.0        OCC NO =    2.0000000  ORB. ENERGY =  -20.295591
  0.42010052D+01  0.39657043D+01  0.13980620D+01 -0.86554466D-01  0.14440484D-01
  0.20432812D-01 -0.37126404D-14  0.28192240D-01  0.17346891D-03  0.24545284D-03
  0.60233482D-15 -0.33765784D-02 -0.25114229D-03 -0.35535812D-03 -0.65793092D-16
  0.24022797D-03  0.16472262D-03  0.25907181D-03  0.24022797D-03  0.16472262D-03
  0.25907181D-03
MO    2     MO 0.0        OCC NO =    2.0000000  ORB. ENERGY =   -1.317769
 -0.89081080D+00 -0.10156027D+01 -0.62657622D+00  0.95115455D-01  0.14772152D+00
  0.20902112D+00  0.99003967D-16  0.27817541D+00  0.78807921D-01  0.11151063D+00
  0.67917623D-16  0.20214308D+00  0.12987549D-01  0.18376956D-01 -0.78387079D-17
  0.68893338D-01  0.48014967D-01  0.74809521D-02  0.68893338D-01  0.48014967D-01
  0.74809521D-02
MO    3     MO 0.0        OCC NO =    2.0000000  ORB. ENERGY =   -0.666099
 -0.40216410D-13  0.20933621D-13 -0.27519101D-12  0.24104132D-12  0.12300092D+01
 -0.86928453D+00 -0.19846393D-14 -0.15581646D-13  0.48534599D+00 -0.34300863D+00
 -0.12855940D-14  0.16799776D-13  0.93135682D-01 -0.65821793D-01 -0.16863312D-15
  0.10515726D+00  0.11199974D+00  0.36180442D-01 -0.10515726D+00 -0.11199974D+00
 -0.36180442D-01
MO    4     MO 0.0        OCC NO =    2.0000000  ORB. ENERGY =   -0.513386
 -0.34168127D+00 -0.37334509D+00 -0.36649587D+00  0.16676856D+00 -0.10436679D+01
 -0.14767559D+01  0.18637244D-13  0.82700299D-01 -0.35765681D+00 -0.50607268D+00
  0.53442827D-14  0.13664668D+00 -0.10899020D+00 -0.15421757D+00  0.18718842D-14
 -0.63130812D-01 -0.62581640D-01 -0.19371464D-01 -0.63130812D-01 -0.62581640D-01
 -0.19371464D-01
MO    5     MO 0.0        OCC NO =    2.0000000  ORB. ENERGY =   -0.454727
  0.24748202D-14  0.26981089D-14  0.26183283D-14 -0.11681778D-14  0.83951243D-14
  0.10388081D-13  0.21680853D+01 -0.58043679D-15  0.29580050D-14  0.35863020D-14
  0.73020321D+00 -0.10030407D-14  0.77278337D-15  0.11249591D-14  0.24083347D+00
  0.57752931D-15  0.62486653D-15  0.22033807D-15  0.31619080D-15  0.17108004D-15
  0.85408592D-16
END DATA
 TOTAL ENERGY =      -75.162231674351 THE VIRIAL(-V/T)=   2.02476898
