 H2O Optimization
GAUSSIAN              5 MOL ORBITALS     21 PRIMITIVES        3 NUCLEI
  O    1    (CENTRE  1)  -4.44734101  3.39697999  0.00000000  CHARGE =  8.0
  H    2    (CENTRE  2)  -2.58401495  3.55136194  0.00000000  CHARGE =  1.0
  H    3    (CENTRE  3)  -4.92380519  5.20496220  0.00000000  CHARGE =  1.0
CENTRE ASSIGNMENTS    1  1  1  1  1  1  1  1  1  1  1  1  1  1  1  2  2  2  3  3
CENTRE ASSIGNMENTS    3
TYPE ASSIGNMENTS      1  1  1  1  1  1  2  2  2  3  3  3  4  4  4  1  1  1  1  1
TYPE ASSIGNMENTS      1
EXPONENTS  0.1307093D+03 0.2380887D+02 0.6443608D+01 0.5033151D+01 0.1169596D+01
EXPONENTS  0.3803890D+00 0.5033151D+01 0.1169596D+01 0.3803890D+00 0.5033151D+01
EXPONENTS  0.1169596D+01 0.3803890D+00 0.5033151D+01 0.1169596D+01 0.3803890D+00
EXPONENTS  0.3425251D+01 0.6239137D+00 0.1688554D+00 0.3425251D+01 0.6239137D+00
EXPONENTS  0.1688554D+00
MO    1     MO 0.0        OCC NO =    2.0000000  ORB. ENERGY =  -20.251576
  0.42273517D+01  0.40885106D+01  0.12742102D+01 -0.61881494D-02  0.82771498D-02
  0.62468884D-02  0.40267961D-02  0.25321574D-02  0.40113628D-03  0.56977846D-02
  0.35829199D-02  0.56759470D-03  0.23550663D-14  0.14809289D-14  0.23460402D-15
 -0.15463736D-02 -0.14955852D-02 -0.46610858D-03 -0.15463736D-02 -0.14955852D-02
 -0.46610858D-03
MO    2     MO 0.0        OCC NO =    2.0000000  ORB. ENERGY =   -1.257549
 -0.99395832D+00 -0.96131321D+00 -0.29959934D+00 -0.20217204D+00  0.27042143D+00
  0.20409109D+00  0.11878177D+00  0.74693167D-01  0.11832653D-01  0.16807232D+00
  0.10568839D+00  0.16742816D-01 -0.56612959D-15 -0.35599748D-15 -0.56395982D-16
  0.43089500D-01  0.41674289D-01  0.12988055D-01  0.43089500D-01  0.41674289D-01
  0.12988055D-01
MO    3     MO 0.0        OCC NO =    2.0000000  ORB. ENERGY =   -0.593857
  0.19183487D-11  0.18553433D-11  0.57822947D-12  0.58512335D-12 -0.78264975D-12
 -0.59067745D-12  0.83831599D+00  0.52715559D+00  0.83510303D-01 -0.59246317D+00
 -0.37255674D+00 -0.59019247D-01  0.14103224D-16  0.88684860D-17  0.14049172D-17
  0.12440490D+00  0.12031900D+00  0.37498178D-01 -0.12440490D+00 -0.12031900D+00
 -0.37498178D-01
MO    4     MO 0.0        OCC NO =    2.0000000  ORB. ENERGY =   -0.459729
  0.44235381D+00  0.42782535D+00  0.13333447D+00  0.12884401D+00 -0.17233927D+00
 -0.13006702D+00  0.73091799D+00  0.45962085D+00  0.72811664D-01  0.10342250D+01
  0.65034846D+00  0.10302612D+00  0.17414438D-13  0.10950666D-13  0.17347695D-14
  0.81723795D-01  0.79039697D-01  0.24633221D-01  0.81723795D-01  0.79039697D-01
  0.24633221D-01
MO    5     MO 0.0        OCC NO =    2.0000000  ORB. ENERGY =   -0.392617
 -0.57941668D-14 -0.56038658D-14 -0.17464802D-14 -0.16295814D-14  0.21796968D-14
  0.16450497D-14 -0.63310600D-14 -0.39811404D-14 -0.63067953D-15 -0.89433730D-14
 -0.56238330D-14 -0.89090963D-15  0.16754502D+01  0.10535680D+01  0.16690288D+00
 -0.11061924D-14 -0.10698611D-14 -0.33342899D-15 -0.11040179D-14 -0.10677581D-14
 -0.33277355D-15
END DATA
 TOTAL ENERGY =    -74.965901217080 THE VIRIAL(-V/T)=   2.00600239
