[Molden Format]
[Atoms] (AU)
HE   1    0         0.000000000000       0.000000000000      -1.417294599664
HE   2    2         0.000000000000       0.000000000000       1.417294599664
[GTO]
  1 0
 s    2  1.00
       13.6267000000         0.1752300000
        1.9993500000         0.8934830000
 s    1  1.00
        0.3829930000         1.0000000000

  2 0
 s    2  1.00
       13.6267000000         0.1752300000
        1.9993500000         0.8934830000
 s    1  1.00
        0.3829930000         1.0000000000

[MO]
 Sym= A1
 Ene=        -0.9059319061
 Spin= Alpha
 Occup=  2.0000
  1      -0.000668021018
  2       0.012136756673
  3       0.457753048636
  4       0.655273636485
 Sym= A1
 Ene=         0.5777265016
 Spin= Alpha
 Occup=  0.0000
  1       0.075718933862
  2      -1.054355942564
  3       0.099512445004
  4       0.101994767273
 Sym= A1
 Ene=         2.1436810362
 Spin= Alpha
 Occup=  0.0000
  1       0.003800930880
  2       0.200887600235
  3       1.160164991571
  4      -1.095333398585
 Sym= A1
 Ene=         5.3818015115
 Spin= Alpha
 Occup=  0.0000
  1       1.250266542409
  2      -0.711642729370
  3      -0.059087134189
  4       0.138069661391
