 He atom - decontracted 6-31G** basis set
GAUSSIAN              1 MOL ORBITALS      8 PRIMITIVES        1 NUCLEI
  He   1    (CENTRE  1)   0.00000000  0.00000000  0.00000000  CHARGE =  2.0
CENTRE ASSIGNMENTS    1  1  1  1  1  1  1  1
TYPE ASSIGNMENTS      1  1  1  1  1  2  3  4
EXPONENTS  0.9812430D+02 0.1476890D+02 0.3318830D+01 0.8740470D+00 0.2445640D+00
EXPONENTS  0.7500000D+00 0.7500000D+00 0.7500000D+00
MO    1     MO 0.0        OCC NO =    2.0000000  ORB. ENERGY =   -0.916871
  0.16834429D+00  0.29443552D+00  0.38688200D+00  0.31406904D+00  0.98510246D-01
  0.00000000D+00  0.00000000D+00  0.00000000D+00
END DATA
 TOTAL ENERGY =     -2.859895424589 THE VIRIAL(-V/T)=   2.00000196
