 He atom - decontracted 6-31G basis set
GAUSSIAN              4 MOL ORBITALS      4 PRIMITIVES        1 NUCLEI
  He   1    (CENTRE  1)   0.00000000  0.00000000  0.00000000  CHARGE =  2.0
CENTRE ASSIGNMENTS    1  1  1  1
TYPE ASSIGNMENTS      1  1  1  1
EXPONENTS  0.3842163D+02 0.5778030D+01 0.1241774D+01 0.2979640D+00
MO    1     MO 0.0        OCC NO =    2.0000000  ORB. ENERGY =   -0.914127
  0.26139500D+00  0.41084277D+00  0.39372947D+00  0.14762025D+00
MO    2     MO 0.0        OCC NO =    0.0000000  ORB. ENERGY =    1.162113
 -0.30840378D+00 -0.18350813D+00 -0.98769517D+00  0.37359698D+00
MO    3     MO 0.0        OCC NO =    0.0000000  ORB. ENERGY =    8.594029
 -0.96832490D-01 -0.37456378D+01  0.12242675D+01 -0.15657262D+00
MO    4     MO 0.0        OCC NO =    0.0000000  ORB. ENERGY =   62.416418
  0.13792313D+02 -0.27041872D+01  0.43482795D+00 -0.49755852D-01
END DATA
 TOTAL ENERGY =       -2.855160426155 THE VIRIAL(-V/T)=   1.99994256
