 He atom - aug-cc-pv6z diffuse basis set
GAUSSIAN             56 MOL ORBITALS     56 PRIMITIVES        1 NUCLEI
  He   1    (CENTRE  1)   0.00000000  0.00000000  0.00000000  CHARGE =  2.0
CENTRE ASSIGNMENTS    1  1  1  1  1  1  1  1  1  1  1  1  1  1  1  1  1  1  1  1
CENTRE ASSIGNMENTS    1  1  1  1  1  1  1  1  1  1  1  1  1  1  1  1  1  1  1  1
CENTRE ASSIGNMENTS    1  1  1  1  1  1  1  1  1  1  1  1  1  1  1  1
TYPE ASSIGNMENTS      1  2  3  4  5  6  7  8  9 10 11 12 13 17 14 15 18 19 16 20
TYPE ASSIGNMENTS     23 29 32 27 22 28 35 34 26 31 33 30 25 24 21 36 37 38 39 40
TYPE ASSIGNMENTS     41 42 43 44 45 46 47 48 49 50 51 52 53 54 55 56
EXPONENTS  0.4473000D-01 0.1280000D+00 0.1280000D+00 0.1280000D+00 0.2410000D+00
EXPONENTS  0.2410000D+00 0.2410000D+00 0.2410000D+00 0.2410000D+00 0.2410000D+00
EXPONENTS  0.4070000D+00 0.4070000D+00 0.4070000D+00 0.4070000D+00 0.4070000D+00
EXPONENTS  0.4070000D+00 0.4070000D+00 0.4070000D+00 0.4070000D+00 0.4070000D+00
EXPONENTS  0.6860000D+00 0.6860000D+00 0.6860000D+00 0.6860000D+00 0.6860000D+00
EXPONENTS  0.6860000D+00 0.6860000D+00 0.6860000D+00 0.6860000D+00 0.6860000D+00
EXPONENTS  0.6860000D+00 0.6860000D+00 0.6860000D+00 0.6860000D+00 0.6860000D+00
EXPONENTS  0.1016000D+01 0.1016000D+01 0.1016000D+01 0.1016000D+01 0.1016000D+01
EXPONENTS  0.1016000D+01 0.1016000D+01 0.1016000D+01 0.1016000D+01 0.1016000D+01
EXPONENTS  0.1016000D+01 0.1016000D+01 0.1016000D+01 0.1016000D+01 0.1016000D+01
EXPONENTS  0.1016000D+01 0.1016000D+01 0.1016000D+01 0.1016000D+01 0.1016000D+01
EXPONENTS  0.1016000D+01
MO    1     MO 0.0        OCC NO =    2.0000000  ORB. ENERGY =   -0.383109
  0.56643212D-01  0.00000000D+00  0.00000000D+00  0.00000000D+00  0.21662862D-02
  0.21662862D-02  0.21662862D-02  0.00000000D+00  0.00000000D+00  0.00000000D+00
  0.00000000D+00  0.00000000D+00  0.00000000D+00  0.00000000D+00  0.00000000D+00
  0.00000000D+00  0.00000000D+00  0.00000000D+00  0.00000000D+00  0.00000000D+00
  0.30540862D-01  0.00000000D+00  0.61081724D-01  0.00000000D+00  0.30540862D-01
  0.00000000D+00  0.00000000D+00  0.00000000D+00  0.00000000D+00  0.61081724D-01
  0.00000000D+00  0.61081724D-01  0.00000000D+00  0.00000000D+00  0.30540862D-01
  0.00000000D+00  0.00000000D+00  0.00000000D+00  0.00000000D+00  0.00000000D+00
  0.00000000D+00  0.00000000D+00  0.00000000D+00  0.00000000D+00  0.00000000D+00
  0.00000000D+00  0.00000000D+00  0.00000000D+00  0.00000000D+00  0.00000000D+00
  0.00000000D+00  0.00000000D+00  0.00000000D+00  0.00000000D+00  0.00000000D+00
  0.00000000D+00
MO    2     MO 0.0        OCC NO =    0.0000000  ORB. ENERGY =    0.067289
  0.00000000D+00  0.12573587D+00  0.00000000D+00  0.00000000D+00  0.00000000D+00
  0.00000000D+00  0.00000000D+00  0.00000000D+00  0.00000000D+00  0.00000000D+00
 -0.32040345D-01  0.00000000D+00  0.00000000D+00 -0.32040345D-01  0.00000000D+00
  0.00000000D+00 -0.32040345D-01  0.00000000D+00  0.00000000D+00  0.00000000D+00
  0.00000000D+00  0.00000000D+00  0.00000000D+00  0.00000000D+00  0.00000000D+00
  0.00000000D+00  0.00000000D+00  0.00000000D+00  0.00000000D+00  0.00000000D+00
  0.00000000D+00  0.00000000D+00  0.00000000D+00  0.00000000D+00  0.00000000D+00
  0.00000000D+00  0.00000000D+00  0.00000000D+00  0.00000000D+00  0.00000000D+00
  0.00000000D+00  0.42518480D-01  0.00000000D+00  0.85036961D-01  0.00000000D+00
  0.42518480D-01  0.00000000D+00  0.00000000D+00  0.00000000D+00  0.00000000D+00
  0.85036961D-01  0.00000000D+00  0.85036961D-01  0.00000000D+00  0.00000000D+00
  0.42518480D-01
MO    3     MO 0.0        OCC NO =    0.0000000  ORB. ENERGY =    0.067289
  0.00000000D+00  0.00000000D+00  0.00000000D+00  0.12573587D+00  0.00000000D+00
  0.00000000D+00  0.00000000D+00  0.00000000D+00  0.00000000D+00  0.00000000D+00
  0.00000000D+00  0.00000000D+00 -0.32040345D-01  0.00000000D+00  0.00000000D+00
 -0.32040345D-01  0.00000000D+00  0.00000000D+00 -0.32040345D-01  0.00000000D+00
  0.00000000D+00  0.00000000D+00  0.00000000D+00  0.00000000D+00  0.00000000D+00
  0.00000000D+00  0.00000000D+00  0.00000000D+00  0.00000000D+00  0.00000000D+00
  0.00000000D+00  0.00000000D+00  0.00000000D+00  0.00000000D+00  0.00000000D+00
  0.42518480D-01  0.00000000D+00  0.85036961D-01  0.00000000D+00  0.42518480D-01
  0.00000000D+00  0.00000000D+00  0.00000000D+00  0.00000000D+00  0.00000000D+00
  0.00000000D+00  0.85036961D-01  0.00000000D+00  0.85036961D-01  0.00000000D+00
  0.00000000D+00  0.00000000D+00  0.00000000D+00  0.42518480D-01  0.00000000D+00
  0.00000000D+00
MO    4     MO 0.0        OCC NO =    0.0000000  ORB. ENERGY =    0.067289
  0.00000000D+00  0.00000000D+00  0.12573587D+00  0.00000000D+00  0.00000000D+00
  0.00000000D+00  0.00000000D+00  0.00000000D+00  0.00000000D+00  0.00000000D+00
  0.00000000D+00 -0.32040345D-01  0.00000000D+00  0.00000000D+00 -0.32040345D-01
  0.00000000D+00  0.00000000D+00 -0.32040345D-01  0.00000000D+00  0.00000000D+00
  0.00000000D+00  0.00000000D+00  0.00000000D+00  0.00000000D+00  0.00000000D+00
  0.00000000D+00  0.00000000D+00  0.00000000D+00  0.00000000D+00  0.00000000D+00
  0.00000000D+00  0.00000000D+00  0.00000000D+00  0.00000000D+00  0.00000000D+00
  0.00000000D+00  0.42518480D-01  0.00000000D+00  0.85036961D-01  0.00000000D+00
  0.42518480D-01  0.00000000D+00  0.00000000D+00  0.00000000D+00  0.00000000D+00
  0.00000000D+00  0.00000000D+00  0.85036961D-01  0.00000000D+00  0.85036961D-01
  0.00000000D+00  0.00000000D+00  0.00000000D+00  0.00000000D+00  0.42518480D-01
  0.00000000D+00
MO    5     MO 0.0        OCC NO =    0.0000000  ORB. ENERGY =    0.333283
  0.10420710D+00  0.00000000D+00  0.00000000D+00  0.00000000D+00 -0.96540210D-01
 -0.96540210D-01 -0.96540210D-01  0.00000000D+00  0.00000000D+00  0.00000000D+00
  0.00000000D+00  0.00000000D+00  0.00000000D+00  0.00000000D+00  0.00000000D+00
  0.00000000D+00  0.00000000D+00  0.00000000D+00  0.00000000D+00  0.00000000D+00
 -0.11740783D-01  0.00000000D+00 -0.23481565D-01  0.00000000D+00 -0.11740783D-01
  0.00000000D+00  0.00000000D+00  0.00000000D+00  0.00000000D+00 -0.23481565D-01
  0.00000000D+00 -0.23481565D-01  0.00000000D+00  0.00000000D+00 -0.11740783D-01
  0.00000000D+00  0.00000000D+00  0.00000000D+00  0.00000000D+00  0.00000000D+00
  0.00000000D+00  0.00000000D+00  0.00000000D+00  0.00000000D+00  0.00000000D+00
  0.00000000D+00  0.00000000D+00  0.00000000D+00  0.00000000D+00  0.00000000D+00
  0.00000000D+00  0.00000000D+00  0.00000000D+00  0.00000000D+00  0.00000000D+00
  0.00000000D+00
MO    6     MO 0.0        OCC NO =    0.0000000  ORB. ENERGY =    0.551390
  0.00000000D+00  0.00000000D+00  0.00000000D+00  0.00000000D+00  0.00000000D+00
  0.00000000D+00  0.00000000D+00  0.29737886D+00  0.00000000D+00  0.00000000D+00
  0.00000000D+00  0.00000000D+00  0.00000000D+00  0.00000000D+00  0.00000000D+00
  0.00000000D+00  0.00000000D+00  0.00000000D+00  0.00000000D+00  0.00000000D+00
  0.00000000D+00  0.00000000D+00  0.00000000D+00  0.00000000D+00  0.00000000D+00
  0.00000000D+00 -0.17068552D+00  0.00000000D+00 -0.17068552D+00  0.00000000D+00
  0.00000000D+00  0.00000000D+00  0.00000000D+00 -0.17068552D+00  0.00000000D+00
  0.00000000D+00  0.00000000D+00  0.00000000D+00  0.00000000D+00  0.00000000D+00
  0.00000000D+00  0.00000000D+00  0.00000000D+00  0.00000000D+00  0.00000000D+00
  0.00000000D+00  0.00000000D+00  0.00000000D+00  0.00000000D+00  0.00000000D+00
  0.00000000D+00  0.00000000D+00  0.00000000D+00  0.00000000D+00  0.00000000D+00
  0.00000000D+00
MO    7     MO 0.0        OCC NO =    0.0000000  ORB. ENERGY =    0.551390
  0.15514425D-15  0.00000000D+00  0.00000000D+00  0.00000000D+00  0.16567059D+00
 -0.12186717D+00 -0.43803423D-01  0.00000000D+00  0.00000000D+00  0.00000000D+00
  0.00000000D+00  0.00000000D+00  0.00000000D+00  0.00000000D+00  0.00000000D+00
  0.00000000D+00  0.00000000D+00  0.00000000D+00  0.00000000D+00  0.00000000D+00
  0.25141700D-01  0.00000000D+00  0.95089382D-01  0.00000000D+00  0.69947682D-01
  0.00000000D+00  0.00000000D+00  0.00000000D+00  0.00000000D+00 -0.69947682D-01
  0.00000000D+00 -0.25141700D-01  0.00000000D+00  0.00000000D+00 -0.95089382D-01
  0.00000000D+00  0.00000000D+00  0.00000000D+00  0.00000000D+00  0.00000000D+00
  0.00000000D+00  0.00000000D+00  0.00000000D+00  0.00000000D+00  0.00000000D+00
  0.00000000D+00  0.00000000D+00  0.00000000D+00  0.00000000D+00  0.00000000D+00
  0.00000000D+00  0.00000000D+00  0.00000000D+00  0.00000000D+00  0.00000000D+00
  0.00000000D+00
MO    8     MO 0.0        OCC NO =    0.0000000  ORB. ENERGY =    0.551390
  0.00000000D+00  0.00000000D+00  0.00000000D+00  0.00000000D+00  0.00000000D+00
  0.00000000D+00  0.00000000D+00  0.00000000D+00  0.00000000D+00  0.29737886D+00
  0.00000000D+00  0.00000000D+00  0.00000000D+00  0.00000000D+00  0.00000000D+00
  0.00000000D+00  0.00000000D+00  0.00000000D+00  0.00000000D+00  0.00000000D+00
  0.00000000D+00 -0.17068552D+00  0.00000000D+00 -0.17068552D+00  0.00000000D+00
  0.00000000D+00  0.00000000D+00  0.00000000D+00  0.00000000D+00  0.00000000D+00
 -0.17068552D+00  0.00000000D+00  0.00000000D+00  0.00000000D+00  0.00000000D+00
  0.00000000D+00  0.00000000D+00  0.00000000D+00  0.00000000D+00  0.00000000D+00
  0.00000000D+00  0.00000000D+00  0.00000000D+00  0.00000000D+00  0.00000000D+00
  0.00000000D+00  0.00000000D+00  0.00000000D+00  0.00000000D+00  0.00000000D+00
  0.00000000D+00  0.00000000D+00  0.00000000D+00  0.00000000D+00  0.00000000D+00
  0.00000000D+00
MO    9     MO 0.0        OCC NO =    0.0000000  ORB. ENERGY =    0.551390
  0.00000000D+00  0.00000000D+00  0.00000000D+00  0.00000000D+00  0.00000000D+00
  0.00000000D+00  0.00000000D+00  0.00000000D+00  0.29737886D+00  0.00000000D+00
  0.00000000D+00  0.00000000D+00  0.00000000D+00  0.00000000D+00  0.00000000D+00
  0.00000000D+00  0.00000000D+00  0.00000000D+00  0.00000000D+00  0.00000000D+00
  0.00000000D+00  0.00000000D+00  0.00000000D+00  0.00000000D+00  0.00000000D+00
 -0.17068552D+00  0.00000000D+00 -0.17068552D+00  0.00000000D+00  0.00000000D+00
  0.00000000D+00  0.00000000D+00 -0.17068552D+00  0.00000000D+00  0.00000000D+00
  0.00000000D+00  0.00000000D+00  0.00000000D+00  0.00000000D+00  0.00000000D+00
  0.00000000D+00  0.00000000D+00  0.00000000D+00  0.00000000D+00  0.00000000D+00
  0.00000000D+00  0.00000000D+00  0.00000000D+00  0.00000000D+00  0.00000000D+00
  0.00000000D+00  0.00000000D+00  0.00000000D+00  0.00000000D+00  0.00000000D+00
  0.00000000D+00
MO   10     MO 0.0        OCC NO =    0.0000000  ORB. ENERGY =    0.551390
  0.17357621D-15  0.00000000D+00  0.00000000D+00  0.00000000D+00 -0.45070126D-01
 -0.12093988D+00  0.16601001D+00  0.00000000D+00  0.00000000D+00  0.00000000D+00
  0.00000000D+00  0.00000000D+00  0.00000000D+00  0.00000000D+00  0.00000000D+00
  0.00000000D+00  0.00000000D+00  0.00000000D+00  0.00000000D+00  0.00000000D+00
 -0.95284193D-01  0.00000000D+00 -0.25868745D-01  0.00000000D+00  0.69415448D-01
  0.00000000D+00  0.00000000D+00  0.00000000D+00  0.00000000D+00 -0.69415448D-01
  0.00000000D+00  0.95284193D-01  0.00000000D+00  0.00000000D+00  0.25868745D-01
  0.00000000D+00  0.00000000D+00  0.00000000D+00  0.00000000D+00  0.00000000D+00
  0.00000000D+00  0.00000000D+00  0.00000000D+00  0.00000000D+00  0.00000000D+00
  0.00000000D+00  0.00000000D+00  0.00000000D+00  0.00000000D+00  0.00000000D+00
  0.00000000D+00  0.00000000D+00  0.00000000D+00  0.00000000D+00  0.00000000D+00
  0.00000000D+00
MO   11     MO 0.0        OCC NO =    0.0000000  ORB. ENERGY =    0.885311
  0.00000000D+00  0.17457652D+00  0.00000000D+00  0.00000000D+00  0.00000000D+00
  0.00000000D+00  0.00000000D+00  0.00000000D+00  0.00000000D+00  0.00000000D+00
 -0.23377584D+00  0.00000000D+00  0.00000000D+00 -0.23377584D+00  0.00000000D+00
  0.00000000D+00 -0.23377584D+00  0.00000000D+00  0.00000000D+00  0.00000000D+00
  0.00000000D+00  0.00000000D+00  0.00000000D+00  0.00000000D+00  0.00000000D+00
  0.00000000D+00  0.00000000D+00  0.00000000D+00  0.00000000D+00  0.00000000D+00
  0.00000000D+00  0.00000000D+00  0.00000000D+00  0.00000000D+00  0.00000000D+00
  0.00000000D+00  0.00000000D+00  0.00000000D+00  0.00000000D+00  0.00000000D+00
  0.00000000D+00 -0.50345140D-01  0.00000000D+00 -0.10069028D+00  0.00000000D+00
 -0.50345140D-01  0.00000000D+00  0.00000000D+00  0.00000000D+00  0.00000000D+00
 -0.10069028D+00  0.00000000D+00 -0.10069028D+00  0.00000000D+00  0.00000000D+00
 -0.50345140D-01
MO   12     MO 0.0        OCC NO =    0.0000000  ORB. ENERGY =    0.885311
  0.00000000D+00  0.00000000D+00  0.17457652D+00  0.00000000D+00  0.00000000D+00
  0.00000000D+00  0.00000000D+00  0.00000000D+00  0.00000000D+00  0.00000000D+00
  0.00000000D+00 -0.23377584D+00  0.00000000D+00  0.00000000D+00 -0.23377584D+00
  0.00000000D+00  0.00000000D+00 -0.23377584D+00  0.00000000D+00  0.00000000D+00
  0.00000000D+00  0.00000000D+00  0.00000000D+00  0.00000000D+00  0.00000000D+00
  0.00000000D+00  0.00000000D+00  0.00000000D+00  0.00000000D+00  0.00000000D+00
  0.00000000D+00  0.00000000D+00  0.00000000D+00  0.00000000D+00  0.00000000D+00
  0.00000000D+00 -0.50345140D-01  0.00000000D+00 -0.10069028D+00  0.00000000D+00
 -0.50345140D-01  0.00000000D+00  0.00000000D+00  0.00000000D+00  0.00000000D+00
  0.00000000D+00  0.00000000D+00 -0.10069028D+00  0.00000000D+00 -0.10069028D+00
  0.00000000D+00  0.00000000D+00  0.00000000D+00  0.00000000D+00 -0.50345140D-01
  0.00000000D+00
MO   13     MO 0.0        OCC NO =    0.0000000  ORB. ENERGY =    0.885311
  0.00000000D+00  0.00000000D+00  0.00000000D+00  0.17457652D+00  0.00000000D+00
  0.00000000D+00  0.00000000D+00  0.00000000D+00  0.00000000D+00  0.00000000D+00
  0.00000000D+00  0.00000000D+00 -0.23377584D+00  0.00000000D+00  0.00000000D+00
 -0.23377584D+00  0.00000000D+00  0.00000000D+00 -0.23377584D+00  0.00000000D+00
  0.00000000D+00  0.00000000D+00  0.00000000D+00  0.00000000D+00  0.00000000D+00
  0.00000000D+00  0.00000000D+00  0.00000000D+00  0.00000000D+00  0.00000000D+00
  0.00000000D+00  0.00000000D+00  0.00000000D+00  0.00000000D+00  0.00000000D+00
 -0.50345140D-01  0.00000000D+00 -0.10069028D+00  0.00000000D+00 -0.50345140D-01
  0.00000000D+00  0.00000000D+00  0.00000000D+00  0.00000000D+00  0.00000000D+00
  0.00000000D+00 -0.10069028D+00  0.00000000D+00 -0.10069028D+00  0.00000000D+00
  0.00000000D+00  0.00000000D+00  0.00000000D+00 -0.50345140D-01  0.00000000D+00
  0.00000000D+00
MO   14     MO 0.0        OCC NO =    0.0000000  ORB. ENERGY =    1.199458
 -0.34404187D-01  0.00000000D+00  0.00000000D+00  0.00000000D+00  0.12510521D+00
  0.12510521D+00  0.12510521D+00  0.00000000D+00  0.00000000D+00  0.00000000D+00
  0.00000000D+00  0.00000000D+00  0.00000000D+00  0.00000000D+00  0.00000000D+00
  0.00000000D+00  0.00000000D+00  0.00000000D+00  0.00000000D+00  0.00000000D+00
 -0.24151639D+00  0.00000000D+00 -0.48303277D+00  0.00000000D+00 -0.24151639D+00
  0.00000000D+00  0.00000000D+00  0.00000000D+00  0.00000000D+00 -0.48303277D+00
  0.00000000D+00 -0.48303277D+00  0.00000000D+00  0.00000000D+00 -0.24151639D+00
  0.00000000D+00  0.00000000D+00  0.00000000D+00  0.00000000D+00  0.00000000D+00
  0.00000000D+00  0.00000000D+00  0.00000000D+00  0.00000000D+00  0.00000000D+00
  0.00000000D+00  0.00000000D+00  0.00000000D+00  0.00000000D+00  0.00000000D+00
  0.00000000D+00  0.00000000D+00  0.00000000D+00  0.00000000D+00  0.00000000D+00
  0.00000000D+00
MO   15     MO 0.0        OCC NO =    0.0000000  ORB. ENERGY =    1.371764
  0.00000000D+00  0.00000000D+00  0.14552659D-15  0.00000000D+00  0.00000000D+00
  0.00000000D+00  0.00000000D+00  0.00000000D+00  0.00000000D+00  0.00000000D+00
  0.00000000D+00 -0.21430130D+00  0.00000000D+00  0.00000000D+00  0.30637431D-01
  0.00000000D+00  0.00000000D+00  0.61226648D+00  0.00000000D+00  0.00000000D+00
  0.00000000D+00  0.00000000D+00  0.00000000D+00  0.00000000D+00  0.00000000D+00
  0.00000000D+00  0.00000000D+00  0.00000000D+00  0.00000000D+00  0.00000000D+00
  0.00000000D+00  0.00000000D+00  0.00000000D+00  0.00000000D+00  0.00000000D+00
  0.00000000D+00 -0.67510411D+00  0.00000000D+00 -0.43880881D+00  0.00000000D+00
  0.23629530D+00  0.00000000D+00  0.00000000D+00  0.00000000D+00  0.00000000D+00
  0.00000000D+00  0.00000000D+00 -0.70888589D+00  0.00000000D+00  0.20251351D+00
  0.00000000D+00  0.00000000D+00  0.00000000D+00  0.00000000D+00 -0.33781786D-01
  0.00000000D+00
MO   16     MO 0.0        OCC NO =    0.0000000  ORB. ENERGY =    1.371764
  0.00000000D+00  0.00000000D+00  0.00000000D+00 -0.31900504D-15  0.00000000D+00
  0.00000000D+00  0.00000000D+00  0.00000000D+00  0.00000000D+00  0.00000000D+00
  0.00000000D+00  0.00000000D+00  0.25612365D+00  0.00000000D+00  0.00000000D+00
 -0.48808227D+00  0.00000000D+00  0.00000000D+00 -0.28028870D+00  0.00000000D+00
  0.00000000D+00  0.00000000D+00  0.00000000D+00  0.00000000D+00  0.00000000D+00
  0.00000000D+00  0.00000000D+00  0.00000000D+00  0.00000000D+00  0.00000000D+00
  0.00000000D+00  0.00000000D+00  0.00000000D+00  0.00000000D+00  0.00000000D+00
 -0.28240993D+00  0.00000000D+00  0.26645128D-01  0.00000000D+00  0.30905506D+00
  0.00000000D+00  0.00000000D+00  0.00000000D+00  0.00000000D+00  0.00000000D+00
  0.00000000D+00  0.25576480D+00  0.00000000D+00  0.84722978D+00  0.00000000D+00
  0.00000000D+00  0.00000000D+00  0.00000000D+00  0.53817473D+00  0.00000000D+00
  0.00000000D+00
MO   17     MO 0.0        OCC NO =    0.0000000  ORB. ENERGY =    1.371764
  0.00000000D+00  0.00000000D+00 -0.85504727D-16  0.00000000D+00  0.00000000D+00
  0.00000000D+00  0.00000000D+00  0.00000000D+00  0.00000000D+00  0.00000000D+00
  0.00000000D+00 -0.15017597D+00  0.00000000D+00  0.00000000D+00  0.64025665D+00
  0.00000000D+00  0.00000000D+00 -0.18972873D+00  0.00000000D+00  0.00000000D+00
  0.00000000D+00  0.00000000D+00  0.00000000D+00  0.00000000D+00  0.00000000D+00
  0.00000000D+00  0.00000000D+00  0.00000000D+00  0.00000000D+00  0.00000000D+00
  0.00000000D+00  0.00000000D+00  0.00000000D+00  0.00000000D+00  0.00000000D+00
  0.00000000D+00  0.20920081D+00  0.00000000D+00  0.37478952D+00  0.00000000D+00
  0.16558871D+00  0.00000000D+00  0.00000000D+00  0.00000000D+00  0.00000000D+00
  0.00000000D+00  0.00000000D+00 -0.49676613D+00  0.00000000D+00 -0.54037823D+00
  0.00000000D+00  0.00000000D+00  0.00000000D+00  0.00000000D+00 -0.70596694D+00
  0.00000000D+00
MO   18     MO 0.0        OCC NO =    0.0000000  ORB. ENERGY =    1.371764
  0.00000000D+00  0.10572091D-14  0.00000000D+00  0.00000000D+00  0.00000000D+00
  0.00000000D+00  0.00000000D+00  0.00000000D+00  0.00000000D+00  0.00000000D+00
  0.25339668D+00  0.00000000D+00  0.00000000D+00 -0.50660582D+00  0.00000000D+00
  0.00000000D+00 -0.25358421D+00  0.00000000D+00  0.00000000D+00  0.00000000D+00
  0.00000000D+00  0.00000000D+00  0.00000000D+00  0.00000000D+00  0.00000000D+00
  0.00000000D+00  0.00000000D+00  0.00000000D+00  0.00000000D+00  0.00000000D+00
  0.00000000D+00  0.00000000D+00  0.00000000D+00  0.00000000D+00  0.00000000D+00
  0.00000000D+00  0.00000000D+00  0.00000000D+00  0.00000000D+00  0.00000000D+00
  0.00000000D+00  0.27960986D+00  0.00000000D+00  0.83820923D+00  0.00000000D+00
  0.55859937D+00  0.00000000D+00  0.00000000D+00  0.00000000D+00  0.00000000D+00
  0.20678214D-03  0.00000000D+00  0.27919629D+00  0.00000000D+00  0.00000000D+00
 -0.27940308D+00
MO   19     MO 0.0        OCC NO =    0.0000000  ORB. ENERGY =    1.371764
  0.00000000D+00  0.00000000D+00  0.00000000D+00  0.40176224D-15  0.00000000D+00
  0.00000000D+00  0.00000000D+00  0.00000000D+00  0.00000000D+00  0.00000000D+00
  0.00000000D+00  0.00000000D+00 -0.53652070D-01  0.00000000D+00  0.00000000D+00
 -0.41550322D+00  0.00000000D+00  0.00000000D+00  0.57645943D+00  0.00000000D+00
  0.00000000D+00  0.00000000D+00  0.00000000D+00  0.00000000D+00  0.00000000D+00
  0.00000000D+00  0.00000000D+00  0.00000000D+00  0.00000000D+00  0.00000000D+00
  0.00000000D+00  0.00000000D+00  0.00000000D+00  0.00000000D+00  0.00000000D+00
  0.59158445D-01  0.00000000D+00 -0.57646370D+00  0.00000000D+00 -0.63562214D+00
  0.00000000D+00  0.00000000D+00  0.00000000D+00  0.00000000D+00  0.00000000D+00
  0.00000000D+00  0.51730525D+00  0.00000000D+00 -0.17747533D+00  0.00000000D+00
  0.00000000D+00  0.00000000D+00  0.00000000D+00  0.45814681D+00  0.00000000D+00
  0.00000000D+00
MO   20     MO 0.0        OCC NO =    0.0000000  ORB. ENERGY =    1.371764
  0.00000000D+00 -0.49294450D-15  0.00000000D+00  0.00000000D+00  0.00000000D+00
  0.00000000D+00  0.00000000D+00  0.00000000D+00  0.00000000D+00  0.00000000D+00
 -0.65329898D-01  0.00000000D+00  0.00000000D+00 -0.39270571D+00  0.00000000D+00
  0.00000000D+00  0.58869540D+00  0.00000000D+00  0.00000000D+00  0.00000000D+00
  0.00000000D+00  0.00000000D+00  0.00000000D+00  0.00000000D+00  0.00000000D+00
  0.00000000D+00  0.00000000D+00  0.00000000D+00  0.00000000D+00  0.00000000D+00
  0.00000000D+00  0.00000000D+00  0.00000000D+00  0.00000000D+00  0.00000000D+00
  0.00000000D+00  0.00000000D+00  0.00000000D+00  0.00000000D+00  0.00000000D+00
  0.00000000D+00 -0.64911391D+00  0.00000000D+00 -0.21610435D+00  0.00000000D+00
  0.43300956D+00  0.00000000D+00  0.00000000D+00  0.00000000D+00  0.00000000D+00
 -0.57707912D+00  0.00000000D+00  0.50504434D+00  0.00000000D+00  0.00000000D+00
  0.72034782D-01
MO   21     MO 0.0        OCC NO =    0.0000000  ORB. ENERGY =    1.371764
  0.00000000D+00  0.00000000D+00  0.00000000D+00  0.00000000D+00  0.00000000D+00
  0.00000000D+00  0.00000000D+00  0.00000000D+00  0.00000000D+00  0.00000000D+00
  0.00000000D+00  0.00000000D+00  0.00000000D+00  0.00000000D+00  0.00000000D+00
  0.00000000D+00  0.00000000D+00  0.00000000D+00  0.00000000D+00  0.10134930D+01
  0.00000000D+00  0.00000000D+00  0.00000000D+00  0.00000000D+00  0.00000000D+00
  0.00000000D+00  0.00000000D+00  0.00000000D+00  0.00000000D+00  0.00000000D+00
  0.00000000D+00  0.00000000D+00  0.00000000D+00  0.00000000D+00  0.00000000D+00
  0.00000000D+00  0.00000000D+00  0.00000000D+00  0.00000000D+00  0.00000000D+00
  0.00000000D+00  0.00000000D+00 -0.11175090D+01  0.00000000D+00 -0.11175090D+01
  0.00000000D+00  0.00000000D+00  0.00000000D+00  0.00000000D+00  0.00000000D+00
  0.00000000D+00 -0.11175090D+01  0.00000000D+00  0.00000000D+00  0.00000000D+00
  0.00000000D+00
MO   22     MO 0.0        OCC NO =    0.0000000  ORB. ENERGY =    1.896670
  0.00000000D+00  0.00000000D+00  0.00000000D+00  0.00000000D+00  0.00000000D+00
  0.00000000D+00  0.00000000D+00  0.00000000D+00  0.00000000D+00  0.29448856D+00
  0.00000000D+00  0.00000000D+00  0.00000000D+00  0.00000000D+00  0.00000000D+00
  0.00000000D+00  0.00000000D+00  0.00000000D+00  0.00000000D+00  0.00000000D+00
  0.00000000D+00 -0.88625195D+00  0.00000000D+00 -0.88625195D+00  0.00000000D+00
  0.00000000D+00  0.00000000D+00  0.00000000D+00  0.00000000D+00  0.00000000D+00
 -0.88625195D+00  0.00000000D+00  0.00000000D+00  0.00000000D+00  0.00000000D+00
  0.00000000D+00  0.00000000D+00  0.00000000D+00  0.00000000D+00  0.00000000D+00
  0.00000000D+00  0.00000000D+00  0.00000000D+00  0.00000000D+00  0.00000000D+00
  0.00000000D+00  0.00000000D+00  0.00000000D+00  0.00000000D+00  0.00000000D+00
  0.00000000D+00  0.00000000D+00  0.00000000D+00  0.00000000D+00  0.00000000D+00
  0.00000000D+00
MO   23     MO 0.0        OCC NO =    0.0000000  ORB. ENERGY =    1.896670
  0.00000000D+00  0.00000000D+00  0.00000000D+00  0.00000000D+00  0.00000000D+00
  0.00000000D+00  0.00000000D+00  0.29448856D+00  0.00000000D+00  0.00000000D+00
  0.00000000D+00  0.00000000D+00  0.00000000D+00  0.00000000D+00  0.00000000D+00
  0.00000000D+00  0.00000000D+00  0.00000000D+00  0.00000000D+00  0.00000000D+00
  0.00000000D+00  0.00000000D+00  0.00000000D+00  0.00000000D+00  0.00000000D+00
  0.00000000D+00 -0.88625195D+00  0.00000000D+00 -0.88625195D+00  0.00000000D+00
  0.00000000D+00  0.00000000D+00  0.00000000D+00 -0.88625195D+00  0.00000000D+00
  0.00000000D+00  0.00000000D+00  0.00000000D+00  0.00000000D+00  0.00000000D+00
  0.00000000D+00  0.00000000D+00  0.00000000D+00  0.00000000D+00  0.00000000D+00
  0.00000000D+00  0.00000000D+00  0.00000000D+00  0.00000000D+00  0.00000000D+00
  0.00000000D+00  0.00000000D+00  0.00000000D+00  0.00000000D+00  0.00000000D+00
  0.00000000D+00
MO   24     MO 0.0        OCC NO =    0.0000000  ORB. ENERGY =    1.896670
  0.00000000D+00  0.00000000D+00  0.00000000D+00  0.00000000D+00  0.00000000D+00
  0.00000000D+00  0.00000000D+00  0.00000000D+00  0.29448856D+00  0.00000000D+00
  0.00000000D+00  0.00000000D+00  0.00000000D+00  0.00000000D+00  0.00000000D+00
  0.00000000D+00  0.00000000D+00  0.00000000D+00  0.00000000D+00  0.00000000D+00
  0.00000000D+00  0.00000000D+00  0.00000000D+00  0.00000000D+00  0.00000000D+00
 -0.88625195D+00  0.00000000D+00 -0.88625195D+00  0.00000000D+00  0.00000000D+00
  0.00000000D+00  0.00000000D+00 -0.88625195D+00  0.00000000D+00  0.00000000D+00
  0.00000000D+00  0.00000000D+00  0.00000000D+00  0.00000000D+00  0.00000000D+00
  0.00000000D+00  0.00000000D+00  0.00000000D+00  0.00000000D+00  0.00000000D+00
  0.00000000D+00  0.00000000D+00  0.00000000D+00  0.00000000D+00  0.00000000D+00
  0.00000000D+00  0.00000000D+00  0.00000000D+00  0.00000000D+00  0.00000000D+00
  0.00000000D+00
MO   25     MO 0.0        OCC NO =    0.0000000  ORB. ENERGY =    1.896670
  0.64695511D-16  0.00000000D+00  0.00000000D+00  0.00000000D+00  0.68727878D-01
  0.10031433D+00 -0.16904221D+00  0.00000000D+00  0.00000000D+00  0.00000000D+00
  0.00000000D+00  0.00000000D+00  0.00000000D+00  0.00000000D+00  0.00000000D+00
  0.00000000D+00  0.00000000D+00  0.00000000D+00  0.00000000D+00  0.00000000D+00
  0.50872601D+00  0.00000000D+00  0.20683390D+00  0.00000000D+00 -0.30189211D+00
  0.00000000D+00  0.00000000D+00  0.00000000D+00  0.00000000D+00  0.30189211D+00
  0.00000000D+00 -0.50872601D+00  0.00000000D+00  0.00000000D+00 -0.20683390D+00
  0.00000000D+00  0.00000000D+00  0.00000000D+00  0.00000000D+00  0.00000000D+00
  0.00000000D+00  0.00000000D+00  0.00000000D+00  0.00000000D+00  0.00000000D+00
  0.00000000D+00  0.00000000D+00  0.00000000D+00  0.00000000D+00  0.00000000D+00
  0.00000000D+00  0.00000000D+00  0.00000000D+00  0.00000000D+00  0.00000000D+00
  0.00000000D+00
MO   26     MO 0.0        OCC NO =    0.0000000  ORB. ENERGY =    1.896670
 -0.11048767D-15  0.00000000D+00  0.00000000D+00  0.00000000D+00 -0.15551307D+00
  0.13727662D+00  0.18236447D-01  0.00000000D+00  0.00000000D+00  0.00000000D+00
  0.00000000D+00  0.00000000D+00  0.00000000D+00  0.00000000D+00  0.00000000D+00
  0.00000000D+00  0.00000000D+00  0.00000000D+00  0.00000000D+00  0.00000000D+00
 -0.54881883D-01  0.00000000D+00 -0.46801059D+00  0.00000000D+00 -0.41312870D+00
  0.00000000D+00  0.00000000D+00  0.00000000D+00  0.00000000D+00  0.41312870D+00
  0.00000000D+00  0.54881883D-01  0.00000000D+00  0.00000000D+00  0.46801059D+00
  0.00000000D+00  0.00000000D+00  0.00000000D+00  0.00000000D+00  0.00000000D+00
  0.00000000D+00  0.00000000D+00  0.00000000D+00  0.00000000D+00  0.00000000D+00
  0.00000000D+00  0.00000000D+00  0.00000000D+00  0.00000000D+00  0.00000000D+00
  0.00000000D+00  0.00000000D+00  0.00000000D+00  0.00000000D+00  0.00000000D+00
  0.00000000D+00
MO   27     MO 0.0        OCC NO =    0.0000000  ORB. ENERGY =    2.349178
  0.00000000D+00 -0.10094060D+00  0.00000000D+00  0.00000000D+00  0.00000000D+00
  0.00000000D+00  0.00000000D+00  0.00000000D+00  0.00000000D+00  0.00000000D+00
  0.31090862D+00  0.00000000D+00  0.00000000D+00  0.31090862D+00  0.00000000D+00
  0.00000000D+00  0.31090862D+00  0.00000000D+00  0.00000000D+00  0.00000000D+00
  0.00000000D+00  0.00000000D+00  0.00000000D+00  0.00000000D+00  0.00000000D+00
  0.00000000D+00  0.00000000D+00  0.00000000D+00  0.00000000D+00  0.00000000D+00
  0.00000000D+00  0.00000000D+00  0.00000000D+00  0.00000000D+00  0.00000000D+00
  0.00000000D+00  0.00000000D+00  0.00000000D+00  0.00000000D+00  0.00000000D+00
  0.00000000D+00 -0.77528907D+00  0.00000000D+00 -0.15505781D+01  0.00000000D+00
 -0.77528907D+00  0.00000000D+00  0.00000000D+00  0.00000000D+00  0.00000000D+00
 -0.15505781D+01  0.00000000D+00 -0.15505781D+01  0.00000000D+00  0.00000000D+00
 -0.77528907D+00
MO   28     MO 0.0        OCC NO =    0.0000000  ORB. ENERGY =    2.349178
  0.00000000D+00  0.00000000D+00 -0.10094060D+00  0.00000000D+00  0.00000000D+00
  0.00000000D+00  0.00000000D+00  0.00000000D+00  0.00000000D+00  0.00000000D+00
  0.00000000D+00  0.31090862D+00  0.00000000D+00  0.00000000D+00  0.31090862D+00
  0.00000000D+00  0.00000000D+00  0.31090862D+00  0.00000000D+00  0.00000000D+00
  0.00000000D+00  0.00000000D+00  0.00000000D+00  0.00000000D+00  0.00000000D+00
  0.00000000D+00  0.00000000D+00  0.00000000D+00  0.00000000D+00  0.00000000D+00
  0.00000000D+00  0.00000000D+00  0.00000000D+00  0.00000000D+00  0.00000000D+00
  0.00000000D+00 -0.77528907D+00  0.00000000D+00 -0.15505781D+01  0.00000000D+00
 -0.77528907D+00  0.00000000D+00  0.00000000D+00  0.00000000D+00  0.00000000D+00
  0.00000000D+00  0.00000000D+00 -0.15505781D+01  0.00000000D+00 -0.15505781D+01
  0.00000000D+00  0.00000000D+00  0.00000000D+00  0.00000000D+00 -0.77528907D+00
  0.00000000D+00
MO   29     MO 0.0        OCC NO =    0.0000000  ORB. ENERGY =    2.349178
  0.00000000D+00  0.00000000D+00  0.00000000D+00 -0.10094060D+00  0.00000000D+00
  0.00000000D+00  0.00000000D+00  0.00000000D+00  0.00000000D+00  0.00000000D+00
  0.00000000D+00  0.00000000D+00  0.31090862D+00  0.00000000D+00  0.00000000D+00
  0.31090862D+00  0.00000000D+00  0.00000000D+00  0.31090862D+00  0.00000000D+00
  0.00000000D+00  0.00000000D+00  0.00000000D+00  0.00000000D+00  0.00000000D+00
  0.00000000D+00  0.00000000D+00  0.00000000D+00  0.00000000D+00  0.00000000D+00
  0.00000000D+00  0.00000000D+00  0.00000000D+00  0.00000000D+00  0.00000000D+00
 -0.77528907D+00  0.00000000D+00 -0.15505781D+01  0.00000000D+00 -0.77528907D+00
  0.00000000D+00  0.00000000D+00  0.00000000D+00  0.00000000D+00  0.00000000D+00
  0.00000000D+00 -0.15505781D+01  0.00000000D+00 -0.15505781D+01  0.00000000D+00