 Li atom - using s & p orbitals
GAUSSIAN              3 MOL ORBITALS      8 PRIMITIVES        1 NUCLEI
  Li   1    (CENTRE  1)   0.00000000  0.00000000  0.00000000  CHARGE =  3.0
CENTRE ASSIGNMENTS    1  1  1  1  1  1  1  1
TYPE ASSIGNMENTS      1  1  2  3  4  2  3  4
EXPONENTS  0.3683820D+02 0.5481720D+01 0.5402050D+00 0.5402050D+00 0.5402050D+00
EXPONENTS  0.1022550D+00 0.1022550D+00 0.1022550D+00
MO    1     MO 0.0        OCC NO =    1.0000000  ORB. ENERGY =   -0.087492
 -0.30531504D-15 -0.10600554D-14  0.39991197D-01 -0.97947771D-02 -0.41886130D-16
  0.77646812D-01 -0.19017516D-01 -0.25371295D-16
MO    2     MO 0.0        OCC NO =    1.0000000  ORB. ENERGY =   -0.080310
  0.70714637D+00  0.24561121D+01  0.18320868D-16  0.38497418D-16 -0.17305156D-15
  0.33930557D-16 -0.89339905D-17 -0.36828125D-16
MO    9     MO 0.0        OCC NO =    1.0000000  ORB. ENERGY =   -0.079905
  0.70721812D+00  0.24561018D+01  0.16118026D-15 -0.42765369D-16  0.10743336D-16
 -0.36503816D-16  0.76069278D-17  0.76251671D-18
END DATA
 TOTAL ENERGY =       -3.712905542719 THE VIRIAL(-V/T)=   1.20644380
