[Molden Format]
[Title]

[Atoms] AU
 ne    1   10 0.00000000000000E+00 0.00000000000000E+00 0.00000000000000E+00
[GTO]
    1 0
 s    8 1.00
 0.16067627955000E+06 0.77991654871448E-04
 0.23953195039000E+05 0.61011049916314E-03
 0.54375063711000E+04 0.32012649765390E-02
 0.15442741024000E+04 0.13260979518860E-01
 0.50788814269000E+03 0.46071472261350E-01
 0.18494847750000E+03 0.13616779294717E+00
 0.72522952039000E+02 0.32676551015406E+00
 0.30088713575000E+02 0.57374611191354E+00
 s    2 1.00
 0.12068434940000E+03 0.10374541517244E+00
 0.36074294857000E+02 0.91769511311370E+00
 s    1 1.00
 0.13052091210000E+02 0.10000000000000E+01
 s    1 1.00
 0.57974783353000E+01 0.10000000000000E+01
 s    1 1.00
 0.20478626895000E+01 0.10000000000000E+01
 s    1 1.00
 0.80214571994000E+00 0.10000000000000E+01
 s    1 1.00
 0.30548672205000E+00 0.10000000000000E+01
 p    6 1.00
 0.49843397466000E+03 0.88759491953182E-03
 0.11814109217000E+03 0.74531332834749E-02
 0.38032529735000E+02 0.37558274190665E-01
 0.14183731950000E+02 0.13407718692633E+00
 0.57864190721000E+01 0.34395515456171E+00
 0.24599622160000E+01 0.60248592778665E+00
 p    1 1.00
 0.10421999498000E+01 0.10000000000000E+01
 p    1 1.00
 0.42987748916000E+00 0.10000000000000E+01
 p    1 1.00
 0.16889708453000E+00 0.10000000000000E+01
 d    1 1.00
 0.64710000000000E+01 0.10000000000000E+01
 d    1 1.00
 0.22130000000000E+01 0.10000000000000E+01
 d    1 1.00
 0.74700000000000E+00 0.10000000000000E+01
 f    1 1.00
 0.46570000000000E+01 0.10000000000000E+01
 f    1 1.00
 0.15240000000000E+01 0.10000000000000E+01
 g    1 1.00
 0.29830000000000E+01 0.10000000000000E+01

[MO]
 Sym=     1a
 Ene= -.32772339260009E+02
 Spin= Alpha
 Occup= 2.000000
     1 0.61142439438637E+00
     2 0.52150410066309E-03
     3 0.34853789914224E+00
     4 0.12505195108238E+00
     5 0.71475067830237E-02
     6 0.34071465254068E-03
     7 0.25129534574786E-03
     8 -.13436133537297E-16
     9 -.23262119537411E-16
    10 -.11811441009635E-15
    11 -.15906095982299E-15
    12 -.25899850989862E-16
    13 -.25916313314785E-16
    14 0.26604375185025E-15
    15 0.35087122053977E-16
    16 0.25123124537841E-15
    17 -.15962974475766E-15
    18 0.12630768667468E-16
    19 -.11246947054941E-15
    20 0.93037514954747E-16
    21 -.10801412062800E-15
    22 0.14976605673257E-16
    23 0.13240062441373E-15
    24 -.15844617896231E-15
    25 0.43241802979674E-15
    26 -.53001604421151E-16
    27 0.33756119429491E-16
    28 0.19245484991659E-16
    29 -.70975027924971E-16
    30 0.20431720372663E-15
    31 -.28157250964630E-15
    32 0.34687615502485E-16
    33 -.40439845255247E-16
    34 0.57522297527623E-17
    35 0.10601396384556E-15
    36 -.13626865333747E-15
    37 0.15433534541473E-15
    38 -.92804236958076E-16
    39 -.15993150198906E-16
    40 -.98362781932633E-16
    41 0.52887810079014E-16
    42 0.86210396376409E-16
    43 0.27335543770254E-16
    44 0.71622139383940E-16
    45 -.64753333764939E-16
    46 0.10463197634416E-15
    47 0.13224290901228E-16
    48 0.39220652813009E-16
    49 -.31325118855127E-16
    50 0.49146384003097E-16
    51 -.40659308575534E-16
    52 -.15575579373894E-16
    53 -.14810824010859E-16
    54 -.11960718911550E-16
    55 0.57602636471889E-16
    56 -.51125969276681E-16
    57 -.84771353718185E-17
    58 0.29387891096610E-16
    59 0.33186447829321E-16
    60 0.30892002826670E-16
    61 0.16791109006516E-16
    62 -.55368172818865E-17
    63 -.41212911041693E-17
    64 0.15286206544041E-16
    65 0.37765546537863E-17
    66 -.14249310550257E-16
    67 -.27826914699404E-16
    68 -.23796446417570E-16
    69 -.30469067644162E-16
    70 -.13911419566196E-17
    71 0.23616401368107E-17
    72 -.16998344455314E-16
 Sym=     2a
 Ene= -.19303203180552E+01
 Spin= Alpha
 Occup= 2.000000
     1 -.14555611324010E+00
     2 -.27307567736636E-01
     3 -.16996376094614E+00
     4 -.43197878136955E-01
     5 0.36119425883558E+00
     6 0.55861515441538E+00
     7 0.22564821526377E+00
     8 -.63948535478912E-15
     9 -.21769667326789E-15
    10 -.73172765851992E-15
    11 -.45671573907302E-15
    12 0.28653384669145E-15
    13 -.25542915298645E-15
    14 0.48681404615328E-15
    15 0.38965474919558E-15
    16 0.52485507432825E-15
    17 -.39179597503276E-15
    18 -.13195460883066E-15
    19 -.32159737161455E-15
    20 -.33057322265226E-16
    21 0.87700401545714E-16
    22 -.54643079280487E-16
    23 0.23788956575240E-16
    24 0.16732500176442E-15
    25 0.12174384660803E-15
    26 0.38224181647267E-16
    27 -.74858204092193E-16
    28 0.36634022444926E-16
    29 -.21822456796256E-16
    30 -.61423683429817E-16
    31 -.72107707275090E-16
    32 0.13773459661031E-16
    33 -.14824348718503E-15
    34 0.13447002752400E-15
    35 0.71907762198400E-16
    36 0.39971303830868E-16
    37 0.99836188049082E-16
    38 -.29808653297307E-16
    39 -.35119789749543E-17
    40 -.13163490520895E-16
    41 0.20304828399814E-16
    42 0.15018592205554E-16
    43 -.93634205544401E-17
    44 0.19687676654487E-16
    45 -.10306777971425E-16
    46 0.27024096329978E-16
    47 0.57714640086779E-17
    48 0.60565372269728E-17
    49 -.35843490381587E-16
    50 0.20697088698742E-16
    51 -.19542230518322E-16
    52 0.21864020203806E-16
    53 0.10511700309478E-16
    54 0.11416533149660E-16
    55 0.26225068422647E-16
    56 -.38279758669515E-16
    57 0.13175135232723E-17
    58 0.40935700839015E-16
    59 0.47574091441580E-16
    60 0.42869148150662E-16
    61 0.68074031181557E-17
    62 -.86030055476365E-17
    63 -.40566331172224E-17
    64 0.10459774869819E-16
    65 0.74349400978494E-17
    66 -.82746861404151E-17
    67 -.40086637142238E-16
    68 -.31821839040752E-16
    69 -.43482969612699E-16
    70 -.29316041614899E-17
    71 0.15671242487357E-17
    72 -.36905452275324E-17
 Sym=     5a
 Ene= -.85034726401888E+00
 Spin= Alpha
 Occup= 2.000000
     1 0.43226054547710E-15
     2 0.32444566814518E-15
     3 -.17607426232447E-15
     4 0.27078242798764E-14
     5 -.11076849638442E-13
     6 0.11024924686864E-13
     7 -.30371616478767E-14
     8 0.27827986223206E+00
     9 0.33521774411884E+00
    10 0.21490924858234E+00
    11 0.20256519544714E+00
    12 0.24401136075796E+00
    13 0.15643652254714E+00
    14 0.16070244632050E+00
    15 0.19358321905813E+00
    16 0.12410686747891E+00
    17 0.53735179821889E-01
    18 0.64729749451630E-01
    19 0.41498464981742E-01
    20 -.12161549533223E-15
    21 0.37537040125610E-16
    22 0.84078455206620E-16
    23 0.87486800888856E-16
    24 -.87008999998043E-16
    25 -.21685010795471E-16
    26 0.17096860976531E-15
    27 -.17559594869413E-16
    28 -.15340901489589E-15
    29 -.90561389334840E-16
    30 0.52134179504272E-16
    31 -.12936521547138E-15
    32 -.14809625040780E-15
    33 0.12045231706939E-15
    34 0.27643933338402E-16
    35 -.18982074664606E-15
    36 0.16864566623043E-17
    37 0.83026148919059E-16
    38 0.59270527744832E-16
    39 0.67140753148976E-16
    40 0.28925436975633E-16
    41 -.30829283206850E-16
    42 -.45087809705474E-16
    43 -.16921992138938E-16
    44 -.48690474252990E-16
    45 -.44990963155511E-16
    46 -.21885553874904E-16
    47 0.11919252440069E-16
    48 0.62206383698214E-16
    49 0.87382906751467E-16
    50 0.13052469552083E-15
    51 -.54241516434821E-16
    52 -.56059506484852E-16
    53 -.11232528224085E-15
    54 -.29217105115364E-16
    55 -.61176965255831E-16
    56 -.62791972915372E-16
    57 0.83007794708785E-17
    58 -.13081265945876E-17
    59 -.37948036414424E-17
    60 -.79166950201865E-17
    61 -.71960438152041E-17
    62 0.16916654452603E-17
    63 0.65936463647247E-17
    64 0.44473438796477E-17
    65 -.44714232717012E-17
    66 -.76665968313159E-17
    67 -.24713579323066E-17
    68 0.47692394426576E-17
    69 0.91373864032228E-17
    70 0.43190810620181E-17
    71 0.37294364765453E-17
    72 0.80820098924674E-18
 Sym=     3a
 Ene= -.85034726401887E+00
 Spin= Alpha
 Occup= 2.000000
     1 0.16600088515959E-15
     2 0.15940661940436E-15
     3 -.63080711738458E-15
     4 0.17915645838403E-14
     5 -.67536794579472E-14
     6 0.66951335357426E-14
     7 -.23381226678635E-14
     8 -.17718649674960E+00
     9 -.13055694213729E+00
    10 0.43307786026488E+00
    11 -.12897741524231E+00
    12 -.95034877079849E-01
    13 0.31524559738078E+00
    14 -.10232254412601E+00
    15 -.75394675767411E-01
    16 0.25009596825866E+00
    17 -.34214291283896E-01
    18 -.25210235144121E-01
    19 0.83626305229398E-01
    20 -.28562300855027E-16
    21 0.87304143219183E-16
    22 -.58741842364156E-16
    23 -.60760187008582E-17
    24 0.47568553900953E-16
    25 -.57766856221203E-16
    26 0.16611321775895E-16
    27 -.11737891695375E-15
    28 0.10076759517785E-15
    29 0.36009040121063E-15
    30 -.96491354284175E-16
    31 0.13441555278696E-15
    32 0.15107600426474E-14
    33 -.49635387304543E-15
    34 -.10144061696019E-14
    35 -.10746626755577E-14
    36 0.13135394072574E-14
    37 -.28460973669226E-15
    38 -.57993217699270E-16
    39 -.49963027337662E-16
    40 0.94012689352688E-16
    41 0.41118849454091E-16
    42 0.16136956158915E-15
    43 -.55843090161299E-16
    44 0.36687216751615E-16
    45 -.94337126295930E-16
    46 -.70288168322809E-16
    47 0.99531561686900E-17
    48 -.50691065258761E-16
    49 -.58918470952029E-16
    50 0.19707247771055E-15
    51 0.26716476332088E-16
    52 -.12111265690088E-16
    53 -.16298353111984E-15
    54 0.41292724330193E-16
    55 0.91158689397539E-16
    56 -.10141694287323E-15
    57 0.19399960117032E-16
    58 0.44893831772655E-17
    59 0.86211476202882E-17
    60 0.85107607776073E-17
    61 0.44614634535293E-17
    62 0.17009739014650E-17
    63 -.10096304265356E-16
    64 -.10564213125061E-18
    65 -.26718037892625E-17
    66 -.88351433072805E-17
    67 -.40400243082109E-17
    68 -.38461165581262E-17
    69 -.11104057156560E-16
    70 0.11995322407678E-16
    71 0.13025049742223E-17
    72 0.75599322585808E-17
 Sym=     4a
 Ene= -.85034726401887E+00
 Spin= Alpha
 Occup= 2.000000
     1 -.52146630649766E-16
     2 -.55192432888737E-16
     3 -.36551088742322E-17
     4 -.36245139598634E-15
     5 0.91451679556611E-15
     6 -.21512464595542E-14
     7 0.21008794929605E-14
     8 0.35659762543791E+00
     9 -.32646676968703E+00
    10 0.47478254437241E-01
    11 0.25957418231212E+00
    12 -.23764136031339E+00
    13 0.34560322879379E-01
    14 0.20592977982778E+00
    15 -.18852966258588E+00
    16 0.27417979777241E-01
    17 0.68858153706373E-01
    18 -.63039957093173E-01
    19 0.91679380582953E-02
    20 -.28636517263239E-16
    21 -.24401745453386E-16
    22 0.53038262716625E-16
    23 -.14030988220828E-15
    24 -.63514039411893E-16
    25 0.61321202523383E-16
    26 -.57529661044108E-16
    27 0.16399584180258E-15
    28 -.10646618075847E-15
    29 0.33462373931984E-16
    30 -.12572986534013E-15
    31 -.57426272180366E-16
    32 0.23982552180463E-17
    33 -.24761460241668E-15
    34 0.24521634719864E-15
    35 0.46471310874567E-15
    36 -.40617883956709E-15
    37 0.21669795679554E-15
    38 -.23278631880983E-16
    39 -.27364075620790E-16
    40 -.23989336807213E-16
    41 -.46835955467108E-16
    42 0.76794947629844E-17
    43 0.10472485746114E-15
    44 0.78067517452551E-16
    45 0.29033265174735E-16
    46 -.72539784759496E-16
    47 -.22137864187262E-16
    48 0.17548653119509E-15
    49 -.11412354469437E-15
    50 0.50442636462769E-16
    51 -.52281650159030E-16
    52 0.65921548509681E-16
    53 -.74311531336394E-16
    54 -.18315823757369E-15
    55 0.87191253752223E-16
    56 0.66356328793576E-17
    57 -.11948733898351E-16
    58 -.21332809591070E-17
    59 -.21182854271533E-16
    60 -.12708934115800E-16
    61 -.27818369979335E-18
    62 -.60079396193677E-18
    63 0.13125829840780E-16
    64 0.12739802647125E-16
    65 0.75621637121162E-18
    66 0.11876084167963E-16
    67 0.93164115075770E-17
    68 -.55690472290750E-17
    69 0.27893816744349E-16
    70 -.33025677746987E-16
    71 -.20852104341921E-18
    72 -.17236926073266E-16
 Sym=     7a
 Ene= 0.43609411901380E+00
 Spin= Alpha
 Occup= 0.000000
     1 -.87289799624434E-16
     2 -.33708821041935E-16
     3 0.17034963571688E-15
     4 -.23491019714716E-15
     5 0.58472456915720E-15
     6 -.20905888374197E-15
     7 -.84537970725534E-15
     8 -.16301740072613E+00
     9 -.10903933598800E+00
    10 0.20006486474138E-01
    11 0.41760505646169E-01
    12 0.27932832850357E-01
    13 -.51251031340326E-02
    14 -.64705310263690E+00
    15 -.43280189934470E+00
    16 0.79410290486122E-01
    17 0.11866433596316E+01
    18 0.79372388108545E+00
    19 -.14563208723946E+00
    20 -.10408092761234E-16
    21 0.44796485614929E-16
    22 -.34388392853695E-16
    23 -.31238730052080E-16
    24 0.57898033445259E-16
    25 0.38622343110493E-17
    26 0.66643417149047E-16
    27 -.30380801108651E-16
    28 -.36262616040395E-16
    29 0.16817094867639E-15
    30 -.14543805511375E-15
    31 0.23996318248152E-15
    32 -.60111836376729E-15
    33 0.39439146871291E-15
    34 0.20672689505438E-15
    35 -.66677843232874E-15
    36 0.10884348054377E-15
    37 -.21346023878757E-15
    38 -.30338036848891E-16
    39 -.62923196724229E-16
    40 0.28839233644499E-16
    41 0.22066865784711E-16
    42 0.78580749053797E-16
    43 -.20985549175743E-16
    44 0.18635881834097E-16
    45 0.58395780883833E-17
    46 -.17706342933116E-16
    47 0.29932313561573E-16
    48 0.55097456741628E-16
    49 0.25153729712348E-16
    50 -.28615739414164E-16
    51 -.26824489617000E-16
    52 -.49220313285041E-16
    53 0.28532472017823E-16
    54 -.47096505579980E-16
    55 0.15473043570361E-16
    56 0.98595711160719E-17
    57 0.21248484142653E-16
    58 -.64910278992792E-17
    59 -.63344762022091E-17
    60 -.23373504344674E-16
    61 -.74387718467448E-17
    62 0.35450812944051E-17
    63 0.68006173162881E-17
    64 -.10099647311373E-17
    65 -.20176578843683E-17
    66 -.13087025131883E-17
    67 -.92644147861077E-17
    68 0.20666685066859E-16
    69 0.20391683204196E-16
    70 0.31108185453086E-17
    71 -.20492535451602E-17
    72 0.85617414615046E-18
 Sym=     6a
 Ene= 0.43609411901380E+00
 Spin= Alpha
 Occup= 0.000000
     1 -.62661653579232E-16
     2 -.10819677798684E-15
     3 0.93659769309804E-15
     4 -.11413378787501E-14
     5 0.20969993201122E-14
     6 -.37063875418051E-14
     7 0.96823135668221E-15
     8 -.10114575519768E+00
     9 0.13172777517937E+00
    10 -.10621600013666E+00
    11 0.25910717887810E-01
    12 -.33744977374403E-01
    13 0.27209573049647E-01
    14 -.40147048368879E+00
    15 0.52285746953153E+00
    16 -.42159543786110E+00
    17 0.73626458418320E+00
    18 -.95887855529155E+00
    19 0.77317213185453E+00
    20 0.86965919166872E-18
    21 0.17279976436459E-16
    22 -.18149635628127E-16
    23 -.92347219346860E-16
    24 0.72699325042780E-16
    25 -.32540062035254E-16
    26 0.19280539150176E-15
    27 -.18503316646978E-15
    28 -.77722250319713E-17
    29 0.34788837907593E-15
    30 -.49554263720562E-16
    31 0.74318958897429E-16
    32 0.13612641169258E-15
    33 0.11378104184371E-15
    34 -.24990745353629E-15
    35 -.41227378474729E-15
    36 0.46170827257652E-15
    37 -.50040035569541E-15
    38 -.28875243543210E-16
    39 0.34845595405610E-16
    40 -.18843344818199E-16
    41 0.13420330649036E-16
    42 -.14328725844697E-16
    43 0.22247152923636E-17
    44 0.25319873808651E-16
    45 -.32421546181342E-16
    46 0.23056284669813E-16
    47 0.62028922298274E-17
    48 0.20944309214539E-16
    49 -.41545920703380E-16
    50 0.44122636438997E-17
    51 -.40513481086493E-16
    52 0.23671623958212E-16
    53 0.36484026714551E-16
    54 0.12413741599202E-16
    55 0.32068077770132E-16
    56 -.42403699579998E-16
    57 0.13914686238288E-16
    58 0.44075549374231E-17
    59 0.18332100035868E-17
    60 0.91492662193794E-17
    61 0.11626062318445E-17
    62 -.55113601376706E-18
    63 -.39130688891027E-17
    64 -.83859711748555E-18
    65 -.86920795930327E-18
    66 0.21417209938438E-17
    67 0.25545659487585E-17
    68 -.10296965681679E-16
    69 -.57748195459731E-17
    70 -.17483241423840E-17
    71 0.19055914051304E-17
    72 0.36901328827225E-17
 Sym=     8a
 Ene= 0.43609411901380E+00
 Spin= Alpha
 Occup= 0.000000
     1 -.55601259132242E-16
     2 -.16860373863824E-16
     3 0.24214724200118E-16
     4 -.54729240023752E-16
     5 0.17720675247733E-15
     6 0.59119270889145E-15
     7 -.87440237730465E-15
     8 0.45380309598276E-01
     9 -.98095492693785E-01
    10 -.16487089205550E+00
    11 -.11625168029687E-01
    12 0.25129325815874E-01
    13 0.42235318364205E-01
    14 0.18012475964771E+00
    15 -.38936329876125E+00
    16 -.65441003085461E+00
    17 -.33033432506566E+00
    18 0.71406098058473E+00
    19 0.12001353744002E+01
    20 0.39325436238551E-16
    21 -.31533918106361E-18
    22 -.39010097057488E-16
    23 0.84113586132626E-16
    24 -.91931930699133E-16
    25 -.46392351509467E-16
    26 0.58998975263265E-16
    27 -.29921198972748E-15
    28 0.24021301446421E-15
    29 -.11914914675792E-15
    30 0.30687151971757E-16
    31 -.65550369420133E-16
    32 0.86795722331777E-15
    33 -.66636882181143E-15
    34 -.20158840150633E-15
    35 0.14638540974027E-14
    36 -.21413357951802E-15
    37 -.91512156033903E-16
    38 0.27640575951204E-16
    39 -.52816781345416E-16
    40 -.50093984265464E-16
    41 -.22541849283103E-16
    42 0.54239655711288E-16
    43 0.19305550860672E-16
    44 -.14541874775381E-16
    45 0.16621492353368E-16
    46 0.47902581588158E-16
    47 0.79710162685457E-18
    48 -.52930305435760E-16
    49 0.68557779757350E-16
    50 0.12738523651289E-16
    51 0.44090027331297E-16
    52 -.51383674826233E-16
    53 0.35895525316070E-16
    54 0.26923429283215E-16
    55 -.40596238728104E-16
    56 -.52986048206432E-16
    57 -.48805164975870E-16
    58 -.13782491068936E-16
    59 0.69291550952505E-18
    60 -.11041876853603E-16
    61 0.32419693447035E-17
    62 -.54556163505046E-17
    63 0.72702654137614E-17
    64 -.62081338227173E-18
    65 0.93211400390176E-17
    66 -.59836456388937E-17
    67 0.17985143847371E-17
    68 0.22412086886520E-16
    69 -.30157037180639E-17
    70 0.88608115955626E-17
    71 -.51861442416904E-17
    72 -.14103642909218E-16
 Sym=     9a
 Ene= 0.79793105719290E+00
 Spin= Alpha
 Occup= 0.000000
     1 0.80241056793011E-01
     2 -.34659455060817E-02
     3 0.16421834824472E+00
     4 -.18145104854806E+00
     5 0.37335482535647E+00
     6 -.20306832791460E+01
     7 0.20290159559849E+01
     8 -.47439821420996E-15
     9 -.15762727121429E-15
    10 -.38248446583280E-16
    11 -.28014608436580E-15
    12 -.71883784700814E-17
    13 0.11660899755769E-16
    14 -.74376224098307E-15
    15 -.70085323146850E-15
    16 -.46425723895868E-15
    17 0.62651606810260E-15
    18 0.82936900511395E-15
    19 0.71156793590561E-15
    20 0.28736435725309E-15
    21 0.61267015600370E-16
    22 -.34863137285346E-15
    23 0.69991446854661E-16
    24 0.17759850476174E-15
    25 0.14346871227902E-16
    26 -.23262120302653E-15
    27 -.14715172232909E-15
    28 0.37977292535563E-15
    29 -.61067003969925E-16
    30 -.79050070523301E-16
    31 -.27298730119131E-16
    32 0.43548729332391E-15
    33 0.59728388755460E-15
    34 -.10327711808785E-14
    35 0.13896518216100E-15
    36 0.16345191018623E-15
    37 0.11010909007675E-15
    38 -.26725495667630E-17
    39 0.15020157146171E-18
    40 -.12312643767890E-17
    41 0.22984570048805E-17
    42 0.83668360313613E-18
    43 -.35942354369412E-18
    44 0.12871444978312E-17
    45 -.10382001576055E-17
    46 0.20113380505586E-17
    47 -.12897842228414E-17
    48 0.45719604616267E-17
    49 0.47839145524409E-17
    50 -.62644815523105E-18
    51 -.37108568619154E-17
    52 -.25727733800125E-17
    53 -.19001072307961E-17
    54 -.24230717676677E-17
    55 -.38455215026725E-17
    56 0.27405756264817E-17
    57 -.10897923052636E-17
    58 -.22460999984225E-16
    59 -.23500814689546E-16
    60 -.42605419583843E-16
    61 0.51868211562090E-18
    62 0.59744944049563E-18
    63 -.18689556510824E-18
    64 -.55348306390631E-18
    65 -.65009352387578E-18
    66 0.48157148442717E-18
    67 0.29479555917948E-17
    68 0.36507489149790E-16
    69 0.38334048593986E-16
    70 0.96479508050837E-19
    71 0.70629449430703E-19
    72 -.44513836857988E-18
 Sym=    11a
 Ene= 0.18705532988141E+01
 Spin= Alpha
 Occup= 0.000000
     1 -.74935915275423E-17
     2 0.41812793691526E-17
     3 -.91240416642008E-16
     4 -.16002360876058E-15
     5 -.23598435584924E-15
     6 0.30461625383557E-15
     7 -.20861133847001E-15
     8 -.89511764121597E-01
     9 0.27880598974181E+00
    10 0.13008333606736E+00
    11 -.30622664650364E+00
    12 0.95381678711841E+00
    13 0.44502512223757E+00
    14 0.64937280816576E+00
    15 -.20226283133704E+01
    16 -.94370368036632E+00
    17 -.30258924997822E+00
    18 0.94248723788757E+00
    19 0.43973906091066E+00
    20 0.19762188061893E-16
    21 0.19438424044817E-15
    22 -.21414642851007E-15
    23 -.80632413608656E-16
    24 -.39203091073936E-16
    25 0.11933858482733E-15
    26 -.16331348986076E-15
    27 -.13740423110068E-16
    28 0.17705391297083E-15
    29 -.78119363532342E-16
    30 0.34198968578755E-16
    31 -.18268019231595E-15
    32 -.31347141841100E-15
    33 0.10905018960387E-14
    34 -.77703047762771E-15
    35 -.29987386372698E-15
    36 0.13269128480735E-14
    37 -.12010156000888E-14
    38 0.45647418500982E-16
    39 -.56199508636314E-16
    40 -.27448019606949E-16
    41 -.39053787516983E-16
    42 0.44033377245201E-16
    43 0.16774896613719E-16
    44 -.22188650942363E-16
    45 0.31366175722530E-16
    46 0.20050485999612E-16
    47 -.28440635719269E-17
    48 -.15087104867587E-15
    49 0.40436656036238E-15
    50 0.15811321274979E-15
    51 0.73240041273394E-16
    52 -.23633757099296E-15
    53 -.13930396787357E-15
    54 0.12917471113216E-15
    55 -.30617709908586E-15
    56 -.72827167236083E-16
    57 -.27733760630074E-16
    58 0.19738262172933E-18
    59 0.58249047145152E-17
    60 -.40217858650400E-18
    61 0.27833792127166E-17
    62 -.38369786011002E-17
    63 0.10092910184015E-16
    64 0.11161749365084E-16
    65 0.19512572769944E-17
    66 -.77101063893945E-17
    67 -.56426730863991E-17
    68 0.52959467994991E-17
    69 -.45894717980655E-17
    70 -.46308649966215E-17
    71 0.25299606403929E-17
    72 -.17275355033431E-16
 Sym=    12a
 Ene= 0.18705532988141E+01
 Spin= Alpha
 Occup= 0.000000
     1 0.31882845104626E-16
     2 -.41640354979612E-17
     3 0.78450451890650E-16
     4 -.12687231356748E-15
     5 0.92294694324457E-16
     6 -.30565187104273E-15
     7 0.23005295016254E-15
     8 0.19940005940236E+00
     9 -.50597725790123E-01
    10 0.24565483225390E+00
    11 0.68216297715302E+00
    12 -.17309872106164E+00
    13 0.84040412136593E+00
    14 -.14465693732348E+01
    15 0.36706669347392E+00
    16 -.17821296432444E+01
    17 0.67406016418362E+00
    18 -.17104263386696E+00
    19 0.83042170126660E+00
    20 0.10047014361240E-15
    21 0.93679759318646E-15
    22 -.10372677367989E-14
    23 -.49084799963083E-15
    24 -.19689827241560E-15
    25 0.65096320017729E-15
    26 0.19595403700849E-15
    27 -.10973948011576E-14
    28 0.90144076414913E-15
    29 0.74317025429851E-15
    30 0.13799593458257E-15
    31 -.32808483134666E-15
    32 -.42708327925062E-15
    33 0.54256937369751E-14
    34 -.49986104577245E-14
    35 -.42069589060895E-14
    36 -.26223918338419E-14
    37 -.20393943562649E-14
    38 -.49245607554787E-16
    39 -.22524195584162E-16
    40 0.10471962931683E-17
    41 0.27337308772745E-16
    42 0.32440286357422E-17
    43 -.15318526287762E-16
    44 0.38732606878723E-16
    45 0.26975350843070E-16
    46 0.13913565029376E-16
    47 0.16462834916431E-16
    48 0.41879391826782E-15
    49 -.11489836476112E-15
    50 0.21174442567763E-15
    51 -.15792085300915E-15
    52 0.18771985171406E-15
    53 -.18630189915000E-15
    54 -.40395014887705E-15
    55 -.33567519248401E-16
    56 -.97783058653097E-16
    57 -.19849847618234E-15
    58 0.31856871560554E-17
    59 -.90542837090337E-17
    60 -.18291533478483E-17
    61 0.92882906077910E-17
    62 -.14643996582691E-16
    63 0.43845273448526E-17
    64 0.32880088970063E-17
    65 0.91622645067912E-17
    66 -.11937401121168E-16
    67 0.35478836267020E-17
    68 -.91439258170762E-17
    69 0.12357053411155E-16
    70 0.11604377386370E-16
    71 0.73545153336915E-17
    72 -.18344010231654E-16
 Sym=    10a
 Ene= 0.18705532988141E+01
 Spin= Alpha
 Occup= 0.000000
     1 -.94412909508086E-16
     2 -.22692888429075E-16
     3 0.14532076071252E-15
     4 0.40338028683992E-15
     5 0.59399941734080E-15
     6 0.60336840899655E-15
     7 -.12945095646029E-15
     8 0.23429483679473E+00
     9 0.14957907735857E+00
    10 -.15937013278020E+00
    11 0.80154070103341E+00
    12 0.51172155633533E+00
    13 -.54521751183256E+00
    14 -.16997173232050E+01
    15 -.10851376515743E+01
    16 0.11561679258230E+01
    17 0.79201990526267E+00
    18 0.50564326683228E+00
    19 -.53874135338658E+00
    20 0.19547844375335E-15
    21 -.55425749766528E-17
    22 -.18993586877669E-15
    23 -.84985541339085E-16
    24 -.24259274459289E-15
    25 -.58656756901076E-16
    26 -.23844728312736E-15
    27 0.17803331358844E-15
    28 0.60413969538921E-16
    29 0.29700871767491E-16
    30 0.85192497817915E-15
    31 0.40428254172852E-15
    32 0.26587023184361E-14
    33 -.42684592999286E-14
    34 0.16097569814924E-14
    35 -.20954496536007E-14
    36 -.79896317693508E-14
    37 -.25104183048809E-14
    38 -.45394936078912E-16
    39 -.21673959518185E-16
    40 -.75831978067848E-17
    41 0.25016317024353E-16
    42 0.12785761503695E-16
    43 -.15937388007813E-16
    44 0.35887380719670E-16
    45 0.16292906590849E-16
    46 0.26111315477491E-16
    47 0.22669566832406E-16
    48 0.44276926912558E-15
    49 0.17873262295073E-15
    50 -.14460511371134E-15
    51 -.21104577636070E-15
    52 -.17421658220583E-16
    53 0.21613562424293E-15
    54 -.38299153410692E-15
    55 -.22237331860822E-15
    56 -.22127505751344E-16
    57 -.66758655538268E-16
    58 -.80656797288403E-17
    59 -.19386145814427E-16
    60 -.14969306080615E-17
    61 -.38918000999837E-17
    62 -.54698843855573E-17
    63 -.41707529996008E-17
    64 0.23871403358058E-17
    65 0.79375076830827E-17
    66 -.41345164707094E-17
    67 0.22796445474575E-16
    68 -.86281100902161E-17
    69 0.11257648531507E-16
    70 0.23443510919433E-17
    71 -.33106640616774E-17
    72 0.10817050081723E-16
 Sym=    15a
 Ene= 0.19970406960182E+01
 Spin= Alpha
 Occup= 0.000000
     1 0.18319092244754E-15
     2 0.32549637472216E-15
     3 -.55992368323963E-15
     4 0.23195514650450E-14
     5 -.61137687494930E-14
     6 0.50665964335637E-14
     7 -.10294026696831E-14
     8 0.43818969330329E-15
     9 -.98373249003435E-17
    10 0.28831538492238E-14
    11 0.42259964777384E-14
    12 -.90201548286993E-15
    13 0.98394558142292E-14
    14 -.86998853504034E-14
    15 0.23159025163878E-14
    16 -.21293683563315E-13
    17 0.44395294789142E-14
    18 -.12731626631400E-14
    19 0.10037451421658E-13
    20 -.73969050668276E-03
    21 -.22215284124641E-01
    22 0.22954974631324E-01
    23 -.63130487577947E-02
    24 0.36129555972120E-02
    25 0.11912476075449E-01
    26 0.14967652095843E-02
    27 0.44952671554378E-01
    28 -.46449436763963E-01
    29 0.12774466701560E-01
    30 -.73108228276892E-02
    31 -.24104919001469E-01
    32 -.15189587126713E-01
    33 -.45619213807296E+00
    34 0.47138172519968E+00
    35 -.12963881958111E+00
    36 0.74192251127985E-01
    37 0.24462338181733E+00
    38 -.13432564721241E-15
    39 -.39580407117616E-16
    40 -.13133962359266E-15
    41 0.10713689177411E-15
    42 -.23924003682868E-15
    43 -.11438996634752E-15
    44 0.73079875199052E-16
    45 0.29234272536394E-15
    46 0.29060056224297E-15
    47 0.38314157350880E-16
    48 0.16910493938506E-15
    49 -.22510622569848E-15
    50 0.75702266549870E-15
    51 -.59869380521926E-15
    52 0.67237277379156E-15
    53 -.58338487371358E-15
    54 0.37181572134167E-15
    55 -.37036108009943E-15
    56 -.43226761062433E-15
    57 -.41134289717823E-15
    58 0.59354862883675E-16
    59 0.58015868648891E-17
    60 0.10522105161235E-15
    61 0.51361657945909E-16
    62 -.12897216779498E-16
    63 0.15094601854907E-15
    64 -.79183797564085E-16
    65 -.24030736313156E-17
    66 0.28546915817549E-16
    67 0.35189143093366E-16
    68 -.13945309012582E-15
    69 -.45380327373759E-16
    70 0.67936505852324E-16
    71 0.20527493660440E-16
    72 -.27142423020769E-15
 Sym=    14a
 Ene= 0.19970406960182E+01
 Spin= Alpha
 Occup= 0.000000
     1 -.64357975394411E-16
     2 -.47823310955435E-16
     3 -.26046022511214E-16
     4 -.73206780045883E-15
     5 0.75555276980518E-15
     6 -.99123430392937E-15
     7 -.29890290180340E-15
     8 0.41872709523349E-14
     9 0.12148144411939E-14
    10 -.18693390341521E-14
    11 0.16000844338130E-13
    12 0.64247283877814E-14
    13 -.58775866084695E-14
    14 -.32699068054152E-13
    15 -.12792025824157E-13
    16 0.11984672982349E-13
    17 0.14614011004936E-13
    18 0.60474394784045E-14
    19 -.53832308636394E-14
    20 -.11470112320717E-01
    21 0.11819922824555E-01
    22 -.34981050383702E-03
    23 0.60843694452629E-02
    24 0.23235091070480E-01
    25 0.10847107052508E-01
    26 0.23209795065060E-01
    27 -.23917637314435E-01
    28 0.70784224937423E-03
    29 -.12311733658408E-01
    30 -.47016252935017E-01
    31 -.21949142667312E-01
    32 -.23553941665419E+00
    33 0.24272279548341E+00
    34 -.71833788292115E-02
    35 0.12494287673690E+00
    36 0.47713393239952E+00
    37 0.22274596761522E+00
    38 0.15353417173613E-16
    39 -.99691066305257E-17
    40 -.11987958947366E-16
    41 -.13403459182635E-17