[Molden Format]
[Title]
 Molden file created by orca_2mkl for BaseName=test

[Atoms] AU
N    1   7         -0.0140883131         0.0845903925         0.1037711513
H    2   1          1.4952113836         0.0214187375         0.0445603623
H    3   1         -0.5919457779        -1.6621666211         0.5350312215
H    4   1         -0.7075176488         0.4654193413        -2.0214243076
[GTO]
  1 0
s   8 1.0
     9046.0000000000         0.4625014943
     1357.0000000000         0.8582537942
      309.3000000000         1.4398036033
       87.7300000000         2.1073802907
       28.5600000000         2.4528112129
       10.2100000000         1.8249171308
        3.8380000000         0.5434603116
        0.7466000000         0.0088335638
s   8 1.0
     9046.0000000000        -0.2016221615
     1357.0000000000        -0.3837127393
      309.3000000000        -0.6278575813
       87.7300000000        -0.9995645316
       28.5600000000        -1.1840306625
       10.2100000000        -1.2827591972
        3.8380000000        -0.4746144262
        0.7466000000         0.6264625369
s   1 1.0
        0.2248000000         0.2326790717
s   1 1.0
        0.0612400000         0.0877377471
p   3 1.0
       13.5500000000         2.1828372526
        2.9170000000         1.7413495278
        0.7973000000         0.8086982955
p   1 1.0
        0.2185000000         0.2129385976
p   1 1.0
        0.0561100000         0.0389260579
d   1 1.0
        0.8170000000         2.0015142317
d   1 1.0
        0.2300000000         0.2177678666

  2 0
s   3 1.0
       13.0100000000         0.1635484228
        1.9620000000         0.2774175417
        0.4446000000         0.3157493070
s   1 1.0
        0.1220000000         0.1471227944
s   1 1.0
        0.0297400000         0.0510406052
p   1 1.0
        0.7270000000         0.9568813751
p   1 1.0
        0.1410000000         0.1231583831

  3 0
s   3 1.0
       13.0100000000         0.1635484228
        1.9620000000         0.2774175417
        0.4446000000         0.3157493070
s   1 1.0
        0.1220000000         0.1471227944
s   1 1.0
        0.0297400000         0.0510406052
p   1 1.0
        0.7270000000         0.9568813751
p   1 1.0
        0.1410000000         0.1231583831

  4 0
s   3 1.0
       13.0100000000         0.1635484228
        1.9620000000         0.2774175417
        0.4446000000         0.3157493070
s   1 1.0
        0.1220000000         0.1471227944
s   1 1.0
        0.0297400000         0.0510406052
p   1 1.0
        0.7270000000         0.9568813751
p   1 1.0
        0.1410000000         0.1231583831

[5D]
[9G]
[MO]
 Sym=     1a
 Ene= -1.55449529616257E+01
 Spin= Alpha
 Occup= 2.000000
  1       1.002583146311
  2       0.004694863950
  3      -0.011974843187
  4      -0.005363366081
  5       0.001512940272
  6      -0.001408631553
  7      -0.000988957272
  8      -0.000341888193
  9       0.001014269263
 10       0.001388614910
 11      -0.000314492131
 12       0.000300322416
 13       0.000364045424
 14      -0.000527047367
 15      -0.000174833315
 16      -0.000044469744
 17       0.000412252920
 18       0.000037943498
 19      -0.000009199967
 20      -0.000135354728
 21       0.000202203748
 22      -0.000171573564
 23      -0.000239734304
 24      -0.000922887605
 25       0.005650113014
 26       0.000644596037
 27       0.001080621635
 28       0.000073496187
 29       0.000054916207
 30      -0.001698747321
 31       0.000128817162
 32      -0.000144561282
 33       0.000082855922
 34       0.003385385034
 35       0.000356415114
 36      -0.000212186539
 37      -0.000541408806
 38       0.000145806302
 39       0.000189797427
 40       0.001302524214
 41      -0.000403084534
 42       0.000584402813
 43       0.002462821223
 44       0.000316796932
 45      -0.000013456271
 46      -0.000011593120
 47      -0.000064983205
 48       0.000181271048
 49      -0.000104255486
 50       0.001069219013
 Sym=     1a
 Ene= -1.18102349635433E+00
 Spin= Alpha
 Occup= 2.000000
  1       0.017736931467
  2      -0.404631841409
  3      -0.176624509622
  4       0.013036072769
  5      -0.105164529001
  6       0.054457515530
  7       0.017384132295
  8       0.068038849863
  9      -0.021052052185
 10       0.018566722586
 11       0.019473787798
 12       0.002669448990
 13       0.011913430577
 14       0.008024272486
 15       0.002573713238
 16      -0.000445985246
 17      -0.010356827386
 18       0.002332971701
 19      -0.023940234758
 20      -0.006276065475
 21      -0.002686775886
 22       0.019125223431
 23       0.001106909606
 24      -0.330071199979
 25      -0.147003571069
 26      -0.018675700340
 27       0.035573461279
 28       0.002257119038
 29      -0.000404038080
 30       0.036431059306
 31       0.005512422144
 32       0.005069415914
 33      -0.192657200317
 34       0.000505442935
 35       0.001604171164
 36      -0.015944415309
 37      -0.031810309956
 38       0.009758062563
 39      -0.001154714592
 40      -0.000291989476
 41       0.003847563145
 42      -0.105228514453
 43       0.055719076141
 44       0.009509483127
 45      -0.010932753207
 46       0.006850361554
 47      -0.022353424707
 48       0.007767187996
 49      -0.003065452902
 50       0.022789572070
 Sym=     1a
 Ene= -6.80501902260011E-01
 Spin= Alpha
 Occup= 2.000000
  1       0.001394333612
  2      -0.037955585360
  3      -0.160850567254
  4      -0.058665141156
  5       0.446605980873
  6       0.190007344153
  7      -0.022833845564
  8       0.101368199347
  9       0.056873216154
 10       0.000611100037
 11      -0.019827782793
 12      -0.005542507066
 13       0.001139795172
 14      -0.008732547444
 15      -0.007584771381
 16       0.004647417024
 17       0.035813226023
 18      -0.013566979879
 19       0.011478227917
 20      -0.004835753013
 21      -0.012694415982
 22      -0.037506308461
 23       0.007941515886
 24       0.380021742331
 25       0.262989432315
 26       0.029252184640
 27      -0.015199733111
 28       0.011062652773
 29       0.001965853205
 30      -0.041272856462
 31      -0.009814748064
 32      -0.000583481646
 33      -0.312384886821
 34      -0.178210083187
 35      -0.013157256098
 36       0.004241463445
 37      -0.025015679391
 38       0.006530232161
 39      -0.018832725846
 40      -0.030286810049
 41       0.008059970267
 42      -0.089967464761
 43      -0.046739594216
 44      -0.002959532095
 45       0.008147230231
 46       0.006748251663
 47      -0.009526270007
 48      -0.006072607398
 49       0.000191496897
 50      -0.008260357797
 Sym=     1a
 Ene= -5.87338035435388E-01
 Spin= Alpha
 Occup= 2.000000
  1      -0.001411128130
  2       0.035056609404
  3       0.134147917288
  4       0.042329357223
  5      -0.141172289075
  6       0.287902774061
  7      -0.301243318953
  8      -0.062012775246
  9       0.133756907516
 10      -0.161314154245
 11      -0.003416180128
 12       0.009582219888
 13      -0.012402045403
 14       0.025373176125
 15       0.005879166383
 16       0.001307735029
 17       0.005949159384
 18       0.001529152394
 19      -0.007595810037
 20      -0.007374464860
 21      -0.000589705105
 22       0.001407354505
 23       0.010786257606
 24      -0.106029375506
 25      -0.049562116201
 26      -0.004795960632
 27       0.004621074118
 28       0.013106350975
 29      -0.015894981572
 30       0.003458995207
 31      -0.000181101761
 32       0.004866035401
 33      -0.246323259546
 34      -0.111597910499
 35      -0.003770063119
 36      -0.015062833287
 37      -0.017533681153
 38      -0.005141748979
 39      -0.007710382989
 40      -0.008081091831
 41       0.005549081419
 42       0.346102731929
 43       0.162312196057
 44       0.000554338911
 45       0.009511174216
 46       0.000884291109
 47       0.029919136566
 48       0.007517772217
 49      -0.005103381478
 50       0.010936151466
 Sym=     1a
 Ene= -4.33158958796106E-01
 Spin= Alpha
 Occup= 2.000000
  1       0.000918531284
  2       0.136558019674
  3       0.285142634175
  4       0.080673617474
  5      -0.167873827704
  6       0.363889966005
  7       0.362050106304
  8      -0.105070044070
  9       0.253953210981
 10       0.267117976758
 11      -0.014448692339
 12       0.046908616204
 13       0.053473655847
 14      -0.000871438957
 15       0.007004308453
 16      -0.010791602641
 17       0.004267778333
 18       0.009328074507
 19      -0.005830270037
 20       0.004578744211
 21      -0.015291899353
 22       0.007191437433
 23       0.004811463102
 24      -0.079421819926
 25      -0.039134025270
 26      -0.013333014669
 27       0.002817212847
 28       0.017903342267
 29       0.017605017267
 30       0.001482697815
 31       0.013581743822
 32       0.010609872965
 33      -0.096665397074
 34      -0.044430004370
 35      -0.004284303483
 36      -0.011757527707
 37       0.001251524448
 38       0.018052604483
 39      -0.009340506261
 40       0.007148458559
 41       0.010964408035
 42      -0.129420531498
 43      -0.065155753046
 44       0.001178611946
 45      -0.010714479818
 46       0.014121560125
 47      -0.005218859484
 48      -0.006809465547
 49       0.011126822002
 50       0.010318163081
 Sym=     1a
 Ene= 3.54197085052255E-02
 Spin= Alpha
 Occup= 0.000000
  1      -0.010907440237
  2       0.049784238310
  3       0.421527796247
  4       2.141889487914
  5      -0.012979625525
  6      -0.021804100576
  7      -0.047945589500
  8       0.020592246933
  9      -0.078258608716
 10      -0.093276562280
 11       0.005771261229
 12      -0.127704561598
 13      -0.166753760583
 14      -0.002825753237
 15      -0.002609068191
 16       0.002077148373
 17       0.000973988519
 18      -0.001103071651
 19       0.006584382225
 20       0.012179859351
 21      -0.013540344477
 22       0.001415361611
 23       0.015286980415
 24      -0.003694857943
 25      -0.519293646922
 26      -0.704094464424
 27       0.000636325402
 28      -0.000669572939
 29      -0.002070492806
 30       0.092944388348
 31      -0.017822767458
 32      -0.011547492900
 33      -0.005355198382
 34      -0.402292589763
 35      -0.756209945512
 36      -0.000489537925
 37       0.002084425681
 38      -0.001996706140
 39      -0.009737505760
 40      -0.073004390686
 41       0.012426166850
 42      -0.016139188504
 43      -0.340701535714
 44      -0.766644445425
 45       0.000907287523
 46      -0.000836289659
 47       0.005706587921
 48      -0.012055800651
 49       0.007263535943
 50      -0.062392515748
 Sym=     1a
 Ene= 5.95783898624976E-02
 Spin= Alpha
 Occup= 0.000000
  1       0.001714234473
  2       0.000519313865
  3      -0.067368362271
  4      -0.272014863143
  5      -0.040948926745
  6      -0.035575773488
  7       0.013188417577
  8      -0.132959305158
  9      -0.112671901904
 10       0.030013162891
 11      -0.855707087436
 12      -0.642796708884
 13       0.158818557138
 14       0.001476311768
 15      -0.000300830801
 16      -0.001179109392
 17      -0.004411281409
 18       0.000874198227
 19      -0.007599592979
 20       0.011228042462
 21       0.004748617006
 22      -0.016299283109
 23       0.002749237585
 24      -0.012578988753
 25       0.615409206375
 26       3.825923295982
 27       0.002198343547
 28      -0.002462724699
 29      -0.001259850747
 30      -0.147508805509
 31       0.070199134531
 32      -0.005077004699
 33       0.009267610443
 34      -0.450691521845
 35      -3.603080003335
 36      -0.001428218633
 37       0.004464307989
 38       0.001054603074
 39      -0.003929851527
 40      -0.137303097462
 41       0.037302941352
 42       0.000391514791
 43      -0.012800191277
 44      -0.080383742403
 45      -0.001367533569
 46      -0.001519691909
 47      -0.000366971586
 48       0.043574532249
 49       0.039058582385
 50      -0.013339927778
 Sym=     1a
 Ene= 5.96420630333722E-02
 Spin= Alpha
 Occup= 0.000000
  1       0.003232549139
  2       0.004091341023
  3      -0.100010445981
  4      -0.459707168167
  5      -0.029936670860
  6       0.030677039996
  7      -0.060579364643
  8      -0.080870980883
  9       0.074591148454
 10      -0.140596683306
 11      -0.482551094944
 12       0.387317220243
 13      -0.755044907155
 14       0.000971673957
 15       0.000108147804
 16      -0.000045280629
 17      -0.001606741821
 18      -0.000263993919
 19       0.024641387718
 20      -0.006135131072
 21       0.010194344223
 22       0.005789524905
 23       0.014035001356
 24      -0.009046436318
 25       0.361620185542
 26       2.130753623715
 27       0.001325769127
 28      -0.000790594663
 29      -0.002912690595
 30      -0.084718356789
 31      -0.029840992330
 32       0.082648204510
 33      -0.006341030529
 34       0.182460215410
 35       1.466685034077
 36      -0.000688271668
 37      -0.003044695390
 38      -0.002866259923
 39       0.054063954448
 40       0.048575025998
 41       0.038916442845
 42       0.001787631065
 43      -0.279590600806
 44      -3.353743680420
 45       0.000290195353
 46       0.001475674875
 47       0.007642291512
 48      -0.022664837545
 49       0.007541079213
 50      -0.106380885117
 Sym=     1a
 Ene= 1.47984068706539E-01
 Spin= Alpha
 Occup= 0.000000
  1       0.016739859145
  2       0.047596974514
  3      -0.350760085182
  4      -3.483447505742
  5       0.041845096178
  6      -0.113770191642
  7      -0.127166546752
  8      -0.034672260272
  9       0.072181876827
 10       0.034929743902
 11      -0.785547786730
 12       1.269214476224
 13       1.028618456128
 14      -0.000537954833
 15      -0.006921912629
 16       0.011745876847
 17      -0.001284949616
 18      -0.010009621619
 19       0.009646551453
 20       0.032322448234
 21      -0.030808290503
 22       0.009765622725
 23       0.049970241737
 24       0.044982803436
 25       1.055509105429
 26       0.800873821962
 27      -0.030845082606
 28      -0.006638042035
 29      -0.006539518383
 30       0.089559363316
 31      -0.201935655938
 32      -0.185165160579
 33       0.011458631331
 34       1.023331185789
 35       0.446046512032
 36       0.010426373324
 37       0.028552771204
 38      -0.009504588190
 39       0.122608801494
 40      -0.018069844234
 41      -0.165842582986
 42      -0.029831302349
 43       0.814069008675
 44       0.246375599856
 45       0.004409855236
 46      -0.000594536601
 47       0.022563854874
 48       0.115915174998
 49      -0.139667674977
 50       0.072243824057
 Sym=     1a
 Ene= 1.90911304365537E-01
 Spin= Alpha
 Occup= 0.000000
  1      -0.041612972831
  2      -0.213574182334
  3       0.717910352440
  4       4.381312051458
  5       0.036664621778
  6      -0.015118958193
  7       0.044737084118
  8       0.305442326563
  9      -0.154566588955
 10       0.084521642361
 11       0.781545080637
 12      -0.057866508047
 13       0.885422864765
 14       0.002928604481
 15      -0.003307665259
 16       0.004385369521
 17      -0.001973061714
 18      -0.010498588987
 19      -0.044541373166
 20       0.037721052072
 21      -0.064570674437
 22       0.033645670119
 23       0.070889328828
 24      -0.077971979714
 25      -2.273963922852
 26      -1.945795350709
 27       0.026679007074
 28      -0.000663005519
 29       0.004055218322
 30       0.600278123795
 31      -0.172908836040
 32      -0.153980462436
 33      -0.006480047955
 34      -0.745085208064
 35      -0.576641192778
 36      -0.003743778846
 37      -0.020519216936
 38       0.012692959693
 39       0.032738419679
 40      -0.324256692553
 41      -0.011847987178
 42       0.112732764872
 43       0.439816804860
 44       0.355198370743
 45       0.001003331572
 46       0.001875712044
 47      -0.006246474800
 48       0.020323083965
 49      -0.021124852129
 50      -0.213605347997
 Sym=     1a
 Ene= 2.01059922840207E-01
 Spin= Alpha
 Occup= 0.000000
  1      -0.002568019279
  2      -0.019306361944
  3      -0.071035555122
  4       0.411214912577
  5       0.096235920904
  6       0.070885721775
  7      -0.003976772093
  8      -0.379760424538
  9      -0.349812136591
 10       0.080856569804
 11      -2.539435046104
 12      -2.061016766613
 13       0.606007753491
 14       0.000938770499
 15      -0.000569825790
 16       0.003403473318
 17       0.011670557249
 18      -0.004943531750
 19      -0.017987111051
 20       0.007716926052
 21      -0.048098866340
 22      -0.135745331368
 23       0.052257452727
 24       0.114862241301
 25       2.541716652318
 26       3.615392129242
 27      -0.008346231335
 28       0.002092558159
 29      -0.000531154671
 30      -0.471647219264
 31       0.109359566003
 32       0.017768709018
 33      -0.119356231747
 34      -2.781050681983
 35      -3.652655928912
 36      -0.018164926027
 37      -0.029320581163
 38       0.012402849764
 39      -0.155200079247
 40      -0.592882432150
 41       0.095564443530
 42       0.020917326525
 43      -0.093525368530
 44      -0.125113559150
 45      -0.007042278991
 46      -0.006438741033
 47       0.001255206871
 48      -0.024111464742
 49       0.025401457695
 50      -0.091628888511
 Sym=     1a
 Ene= 2.03492808187751E-01
 Spin= Alpha
 Occup= 0.000000
  1       0.014426401755
  2       0.078238193271
  3      -0.093857084475
  4      -1.670475441202
  5      -0.073058850743
  6       0.036121566300
  7      -0.116686660016
  8       0.119784049006
  9      -0.087143366896
 10       0.317785876100
 11       1.425727490903
 12      -1.159435561777
 13       2.361786178685
 14       0.018415537393
 15       0.005661156817
 16      -0.000616420399
 17       0.000368726983
 18       0.005469357225
 19      -0.162014849263
 20      -0.054727856985
 21       0.026833130422
 22      -0.015093846505
 23      -0.039929094934
 24      -0.052586204268
 25      -0.625173962446
 26      -1.552445860779
 27      -0.005424936456
 28       0.004926601478
 29      -0.006054436148
 30       0.009859322803
 31       0.115639734883
 32      -0.160401217099
 33      -0.056602231636
 34      -0.364622431577
 35      -0.905621196859
 36      -0.003817389397
 37      -0.001913985464
 38       0.003596950564
 39      -0.077928543794
 40       0.055283168891
 41      -0.095126964347
 42       0.064013638822
 43       2.225173674315
 44       3.174935849935
 45       0.023294844546
 46      -0.018583409547
 47       0.041371801552
 48       0.126597948487
 49      -0.027268273296
 50       0.560991202477
 Sym=     1a
 Ene= 2.59893329978037E-01
 Spin= Alpha
 Occup= 0.000000
  1      -0.021449134232
  2      -0.033716972368
  3       0.526474161338
  4       2.719561621505
  5      -0.072850311684
  6       0.121486738953
  7      -0.241531728623
  8      -0.005520163798
  9       0.003138108852
 10      -0.145653613472
 11       0.163896272135
 12      -0.323865450858
 13       0.163781443523
 14      -0.013363009627
 15      -0.020529448571
 16       0.013022925284
 17      -0.001639816681
 18       0.010069366597
 19       0.023526437419
 20       0.056051315179
 21      -0.040020654662
 22      -0.001349705458
 23      -0.004798042214
 24      -0.020986239080
 25      -0.921092018003
 26      -0.866972563921
 27       0.014820364694
 28       0.006981818774
 29      -0.016800825346
 30       0.336373139125
 31       0.031012524443
 32      -0.289508613349
 33       0.020791804958
 34      -0.591079571830
 35      -1.040721786104
 36      -0.011919748231
 37      -0.015478497870
 38      -0.005265082622
 39      -0.180192613373
 40      -0.464813822072
 41      -0.089428996509
 42      -0.177157335212
 43      -1.149103588243
 44       1.092514278408
 45       0.001348719730
 46       0.001093937599
 47      -0.003578269187
 48       0.199016219493
 49      -0.092617336721
 50       0.495887271119
 Sym=     1a
 Ene= 3.08497374533303E-01
 Spin= Alpha
 Occup= 0.000000
  1      -0.009957194226
  2       0.014091945718
  3       0.299529095054
  4       2.115426406148
  5      -0.136906406564
  6      -0.142129302241
  7       0.015479569107
  8      -0.172582247803
  9      -0.127128327547
 10       0.013867145548
 11       0.290256017406
 12       0.042851671289
 13      -0.124258389256
 14      -0.006483620779
 15       0.012118994097
 16       0.028527143845
 17       0.014287485427
 18      -0.009474423251
 19       0.040211452267
 20      -0.062924810028
 21      -0.128687062704
 22      -0.105165469767
 23       0.054378804688
 24       0.026482858827
 25      -0.209397514727
 26      -1.285645026874
 27       0.012610298008
 28      -0.006930172108
 29       0.005854405128
 30       0.426692545739
 31      -0.346370597120
 32       0.087399510037
 33      -0.127047018675
 34      -1.453651017393
 35       0.853585377991
 36      -0.003240182501
 37      -0.011356690120
 38      -0.006489710072
 39      -0.011320844637
 40       0.480349735872
 41      -0.415233363536
 42      -0.039252176157
 43      -0.701250301818
 44      -0.051682480558
 45      -0.007916074938
 46      -0.004329490853
 47      -0.005125571427
 48      -0.288149625662
 49      -0.386916636945
 50       0.013548510363
 Sym=     1a
 Ene= 3.42815446103125E-01
 Spin= Alpha
 Occup= 0.000000
  1      -0.009241078323
  2       0.014243295330
  3       0.244741877664
  4       1.372382940077
  5      -0.063432527374
  6      -0.066268927231
  7       0.000110188305
  8      -0.110203806315
  9       0.035876014268
 10       0.079436343037
 11      -0.650529504022
 12      -0.471313056449
 13      -0.130963625282
 14       0.015736345716
 15      -0.040767254797
 16      -0.028958776983
 17      -0.008194531646
 18      -0.022695598673
 19      -0.085594266597
 20       0.271495810157
 21       0.185064825351
 22       0.020766568225
 23       0.152492595480
 24      -0.008659705889
 25      -1.224472343577
 26       0.288750368571
 27      -0.008807173638
 28      -0.014591907094
 29      -0.023307908849
 30       0.508326959973
 31      -0.445086026512
 32      -0.827687635644
 33      -0.032504266605
 34      -0.128617687368
 35      -0.304584258401
 36       0.005106184782
 37      -0.012431464829
 38       0.018564808608
 39       0.521593590119
 40       0.742370851087
 41       0.588924730615
 42      -0.016139592802
 43      -0.447746141991
 44      -0.220561002320
 45       0.010989626780
 46       0.009339398400
 47      -0.005595889083
 48       0.694019307497
 49       0.489406040263
 50      -0.044067102449
 Sym=     1a
 Ene= 3.45028901468817E-01
 Spin= Alpha
 Occup= 0.000000
  1       0.007007777324
  2       0.014257164368
  3      -0.155712927660
  4       0.049976241570
  5       0.023849489745
  6      -0.019243789654
  7       0.048347817190
  8       0.085578053509
  9      -0.116180600301
 10       0.118022503270
 11       0.133740049473
 12      -0.167476398711
 13       0.447695578829
 14       0.008762259698
 15      -0.030596806435
 16       0.018169190737
 17       0.007662233083
 18       0.041385974265
 19      -0.019441394980
 20       0.238232193324
 21      -0.107166699963
 22      -0.047792736609
 23      -0.325507299714
 24      -0.007760544648
 25       0.202847676543
 26      -0.040896197460
 27       0.006702895175
 28       0.032275542168
 29      -0.022590151611
 30      -0.257219321384
 31       0.834065636161
 32      -0.618878432826
 33       0.011790315469
 34       0.634539098156
 35      -0.120121868210
 36      -0.029310971995
 37      -0.000727205485
 38      -0.002311591329
 39      -0.619045647953
 40       0.579003120566
 41      -0.190658617529
 42      -0.022853703452
 43      -0.749112019970
 44       0.139348554369
 45       0.008332390903
 46      -0.003365807905
 47       0.003741928280
 48       0.374812135684
 49      -0.498766441311
 50      -0.868269328123
 Sym=     1a
 Ene= 3.58526963673009E-01
 Spin= Alpha
 Occup= 0.000000
  1       0.001645638130
  2       0.066974635863
  3      -0.020910318721
  4       2.529671924140
  5       0.074094764660
  6       0.019875362096
  7       0.013873935011
  8      -0.007612119103
  9       0.218363308238
 10       0.144530722576
 11       0.057560100743
 12       0.103150074386
 13      -0.105073813492
 14       0.010449486886
 15       0.002847944197
 16       0.025456620324
 17      -0.027248052333
 18      -0.019978307728
 19      -0.052234254753
 20      -0.040521480157
 21      -0.109607908920
 22       0.164464137561
 23       0.128077240026
 24      -0.067326081703
 25      -0.851135284604
 26       0.134595605888
 27       0.004050048467
 28      -0.017198354012
 29      -0.000887205089
 30      -1.138995623984
 31      -0.409992365264
 32       0.024042655254
 33      -0.026649895485
 34      -1.320583205023
 35      -0.220212590377
 36       0.009513643741
 37      -0.002207128765
 38      -0.005639510484
 39       0.520336732124
 40      -0.449836357035
 41      -0.449580414790
 42      -0.018839656169
 43      -0.880011044727
 44      -0.329082906246
 45      -0.004274967541
 46       0.000621517050
 47       0.002376864035
 48       0.177440490953
 49      -0.385929341094
 50      -0.202938525991
 Sym=     1a
 Ene= 4.72165036472449E-01
 Spin= Alpha
 Occup= 0.000000
  1      -0.002791136880
  2       0.052687797795
  3       0.487239273057
  4       5.517752813849
  5       0.128082187433
  6      -0.186340066592
  7      -0.148056036622
  8       0.741707387231
  9      -0.848905574362
 10      -0.623289358449
 11       1.178957864265
 12      -1.233677669318
 13      -0.786700049516
 14      -0.014365348217
 15      -0.002340998091
 16      -0.008578115712
 17       0.011891751054
 18       0.003509867278
 19      -0.065782916306
 20      -0.066004162526
 21       0.077335132537
 22       0.018216299790
 23      -0.111367005193
 24      -0.041237654727
 25      -3.265624061874
 26      -0.952849656013
 27       0.041104329093
 28       0.013793611187
 29       0.003955278884
 30      -0.447993525281
 31       0.710891211821
 32       0.452613166534
 33      -0.028508191019
 34      -1.615595358330
 35      -0.323992832773
 36      -0.019308570281
 37      -0.018555583157
 38       0.006594107260
 39      -0.343781608500
 40       0.615001001983
 41       0.362150585408
 42      -0.049244525316
 43      -1.283111391628
 44      -0.086462030658
 45      -0.001023889764
 46      -0.003713813393
 47       0.000608023546
 48      -0.352831431152
 49       0.530909789940
 50       0.271153868955
 Sym=     1a
 Ene= 5.17880385385855E-01
 Spin= Alpha
 Occup= 0.000000
  1      -0.001733109604
  2       0.001945131992
  3       0.029161162606
  4       0.042531263213
  5      -0.030287625780
  6      -0.055746276208
  7       0.050963904817
  8      -0.202032743342
  9      -0.297906890819
 10       0.244464167582
 11      -0.531242792370
 12      -1.128334829443
 13       0.979459956936
 14      -0.018234795211
 15       0.006036998199
 16       0.006484786924
 17      -0.016504806324
 18       0.008774820181
 19       0.026487646945
 20      -0.053901096197
 21      -0.071069478542
 22      -0.035859886958
 23      -0.013875749956
 24       0.002770610448
 25       0.865542282699
 26       0.501912503463
 27      -0.002907561384
 28       0.013176690634
 29      -0.013625880610
 30      -0.071247318118
 31      -0.102246038592
 32       0.567712036606
 33       0.021331095385
 34      -0.869486339028
 35      -1.033595679162
 36       0.005911163896
 37      -0.016346482242
 38       0.027047081193
 39      -0.655877183856
 40      -0.008032783191
 41      -1.641511458853
 42      -0.037557990268
 43      -0.001955480230
 44       0.499683753037
 45      -0.017762776095
 46      -0.031768105727
 47       0.013244590678
 48       0.812176101567
 49       1.354106912567
 50      -0.448991790527
 Sym=     1a
 Ene= 5.33795875096438E-01
 Spin= Alpha
 Occup= 0.000000
  1      -0.008781676495
  2       0.018747997992
  3       0.409087257458
  4       0.531367131942
  5       0.059179971424
  6       0.010194765121
  7       0.074591530045
  8       0.269114710010
  9       0.169536715150
 10       0.548197412863
 11       1.500409793862
 12      -0.292003189159
 13       1.608929438590
 14      -0.033548851797
 15      -0.033480952049
 16       0.007311577966
 17       0.009085347546
 18       0.004301470102
 19       0.008937418074
 20       0.188463871298
 21      -0.025834778220
 22       0.046829654362
 23      -0.040370294795
 24       0.029803385604
 25      -0.106206522333
 26      -1.363388847833
 27       0.014691655593
 28       0.000755416827
 29       0.003309009024
 30      -0.563840702718
 31       0.152682398429
 32      -2.379527368165
 33       0.029012702405
 34       0.843261187395
 35      -0.033228458195
 36      -0.010190389359
 37      -0.001653123544
 38       0.002319652745
 39      -0.204138939872
 40       0.289580482500
 41      -0.821514175981
 42      -0.122244707252
 43      -1.151063977368
 44       1.124652923390
 45       0.040245519346
 46      -0.017449341454
 47       0.018460141503
 48      -1.580957757322
 49       0.700827322780
 50      -0.957060543454
 Sym=     1a
 Ene= 5.45987419203316E-01
 Spin= Alpha
 Occup= 0.000000
  1      -0.000691916000
  2      -0.008441939181
  3      -0.193410417514
  4      -0.177580019689
  5      -0.102369511088
  6      -0.089720377565
  7       0.006976537376
  8      -0.683752898598
  9      -0.736418450314
 10       0.036859940848
 11      -1.900521093115
 12      -1.552202125064
 13       0.373192688404
 14      -0.004360733470
 15      -0.002487979693
 16      -0.008471186413
 17      -0.049442685236
 18       0.028189851302
 19       0.030517940150
 20       0.016394394609
 21      -0.031751567594
 22      -0.060131046353
 23      -0.104080972217
 24      -0.019285985909
 25       0.848909770734
 26       1.828606121905
 27      -0.023118806946
 28      -0.004858289430
 29       0.003603166218
 30       0.407069436766
 31       2.358305470309
 32      -0.461808613234
 33       0.049902594319
 34      -0.088257269061
 35      -1.673554918135
 36      -0.043248459577