[Molden Format]
[Atoms] (AU)
N    1    7        -0.014088313098       0.084590392416       0.103771151230
H    2    1         1.495211382798       0.021418737520       0.044560362308
H    3    1        -0.591945777547      -1.662166620160       0.535031221194
H    4    1        -0.707517648382       0.465419341072      -2.021424306444
[GTO]
  1 0
 s    8  1.00
     9046.0000000000         0.0007000000
     1357.0000000000         0.0053890000
      309.3000000000         0.0274060000
       87.7300000000         0.1032070000
       28.5600000000         0.2787230000
       10.2100000000         0.4485400000
        3.8380000000         0.2782380000
        0.7466000000         0.0154400000
 s    8  1.00
     9046.0000000000        -0.0001530000
     1357.0000000000        -0.0012080000
      309.3000000000        -0.0059920000
       87.7300000000        -0.0245440000
       28.5600000000        -0.0674590000
       10.2100000000        -0.1580780000
        3.8380000000        -0.1218310000
        0.7466000000         0.5490030000
 s    1  1.00
        0.2248000000         1.0000000000
 s    1  1.00
        0.0612400000         1.0000000000
 p    3  1.00
       13.5500000000         0.0399190000
        2.9170000000         0.2171690000
        0.7973000000         0.5103190000
 p    1  1.00
        0.2185000000         1.0000000000
 p    1  1.00
        0.0561100000         1.0000000000
 d    1  1.00
        0.8170000000         1.0000000000
 d    1  1.00
        0.2300000000         1.0000000000

  2 0
 s    3  1.00
       13.0100000000         0.0196850000
        1.9620000000         0.1379770000
        0.4446000000         0.4781480000
 s    1  1.00
        0.1220000000         1.0000000000
 s    1  1.00
        0.0297400000         1.0000000000
 p    1  1.00
        0.7270000000         1.0000000000
 p    1  1.00
        0.1410000000         1.0000000000

  3 0
 s    3  1.00
       13.0100000000         0.0196850000
        1.9620000000         0.1379770000
        0.4446000000         0.4781480000
 s    1  1.00
        0.1220000000         1.0000000000
 s    1  1.00
        0.0297400000         1.0000000000
 p    1  1.00
        0.7270000000         1.0000000000
 p    1  1.00
        0.1410000000         1.0000000000

  4 0
 s    3  1.00
       13.0100000000         0.0196850000
        1.9620000000         0.1379770000
        0.4446000000         0.4781480000
 s    1  1.00
        0.1220000000         1.0000000000
 s    1  1.00
        0.0297400000         1.0000000000
 p    1  1.00
        0.7270000000         1.0000000000
 p    1  1.00
        0.1410000000         1.0000000000

[5D]
[9G]

[MO]
 Sym= A
 Ene=       -15.5449705973
 Spin= Alpha
 Occup=  2.0000
  1       1.002585573873
  2       0.004699616790
  3      -0.011986421118
  4      -0.005369360223
  5       0.001513997702
  6      -0.001408840345
  7      -0.000989022535
  8      -0.000341616106
  9       0.001015382869
 10       0.001389470531
 11      -0.000314630236
 12       0.000300612476
 13       0.000364187806
 14      -0.000527476257
 15      -0.000174947016
 16      -0.000044459437
 17       0.000412739390
 18       0.000037985050
 19      -0.000009177914
 20      -0.000135546224
 21       0.000202475382
 22      -0.000171710462
 23      -0.000240040858
 24      -0.000924088090
 25       0.005656062511
 26       0.000645492543
 27       0.001082366901
 28       0.000073387713
 29       0.000054860068
 30      -0.001701209070
 31       0.000129089255
 32      -0.000144558204
 33       0.000083548944
 34       0.003389513638
 35       0.000356936528
 36      -0.000212150940
 37      -0.000541473476
 38       0.000145779541
 39       0.000189881881
 40       0.001304340594
 41      -0.000403485131
 42       0.000585100117
 43       0.002464777006
 44       0.000316986756
 45      -0.000013294532
 46      -0.000011726904
 47      -0.000064531676
 48       0.000181213831
 49      -0.000104202749
 50       0.001070139331
 Sym= A
 Ene=        -1.1810332479
 Spin= Alpha
 Occup=  2.0000
  1       0.017742936050
  2      -0.404619386227
  3      -0.176587207954
  4       0.013006431438
  5      -0.105159428842
  6       0.054456287276
  7       0.017383997691
  8       0.068063743719
  9      -0.021044499561
 10       0.018562463297
 11       0.019485246253
 12       0.002680671565
 13       0.011929977507
 14       0.008019535043
 15       0.002572168576
 16      -0.000451645128
 17      -0.010353928953
 18       0.002332552044
 19      -0.023931011015
 20      -0.006279604524
 21      -0.002668994158
 22       0.019124775058
 23       0.001111762386
 24      -0.330102386722
 25      -0.147081371484
 26      -0.018692406189
 27       0.035589675960
 28       0.002254011091
 29      -0.000398712928
 30       0.036472256911
 31       0.005508595167
 32       0.005071931901
 33      -0.192654376943
 34       0.000554133279
 35       0.001610197081
 36      -0.015940359459
 37      -0.031814110855
 38       0.009762280830
 39      -0.001148242258
 40      -0.000285213273
 41       0.003850233752
 42      -0.105230423723
 43       0.055772329136
 44       0.009523492340
 45      -0.010932152623
 46       0.006850773683
 47      -0.022353979452
 48       0.007772756682
 49      -0.003061574421
 50       0.022808228191
 Sym= A
 Ene=        -0.6805160471
 Spin= Alpha
 Occup=  2.0000
  1       0.001394470520
  2      -0.037960526933
  3      -0.160922341154
  4      -0.058717776894
  5       0.446606733236
  6       0.189997710706
  7      -0.022829339618
  8       0.101282490447
  9       0.056846445513
 10       0.000626794841
 11      -0.019872035563
 12      -0.005559478378
 13       0.001151464114
 14      -0.008737609693
 15      -0.007579936654
 16       0.004649986201
 17       0.035812802825
 18      -0.013562922492
 19       0.011493038226
 20      -0.004828284622
 21      -0.012700242674
 22      -0.037532205370
 23       0.007956780106
 24       0.380078494313
 25       0.263208224508
 26       0.029288602556
 27      -0.015216194544
 28       0.011047525253
 29       0.001958144798
 30      -0.041323500627
 31      -0.009815927912
 32      -0.000603114514
 33      -0.312399110660
 34      -0.178325926766
 35      -0.013184272581
 36       0.004234495904
 37      -0.025024972243
 38       0.006534174777
 39      -0.018839219615
 40      -0.030327266581
 41       0.008072641457
 42      -0.089975938161
 43      -0.046762010970
 44      -0.002957087010
 45       0.008145671949
 46       0.006743224710
 47      -0.009527122559
 48      -0.006094945601
 49       0.000185422596
 50      -0.008264302961
 Sym= A
 Ene=        -0.5873448922
 Spin= Alpha
 Occup=  2.0000
  1       0.001415001374
  2      -0.035051379086
  3      -0.134218019227
  4      -0.042350513473
  5       0.141163818572
  6      -0.287905887486
  7       0.301237138783
  8       0.062024142133
  9      -0.133789744264
 10       0.161378975216
 11       0.003419875199
 12      -0.009588658268
 13       0.012400516184
 14      -0.025368547317
 15      -0.005883806533
 16      -0.001302387045
 17      -0.005944905207
 18      -0.001524453862
 19       0.007560252961
 20       0.007414112626
 21       0.000570032554
 22      -0.001434606896
 23      -0.010837841121
 24       0.106031264232
 25       0.049579690248
 26       0.004793143504
 27      -0.004626477629
 28      -0.013078876688
 29       0.015860702357
 30      -0.003466796365
 31       0.000208158593
 32      -0.004896100106
 33       0.246323755247
 34       0.111638935675
 35       0.003776107163
 36       0.015045267145
 37       0.017547475231
 38       0.005121446073
 39       0.007683235101
 40       0.008113834411
 41      -0.005565442938
 42      -0.346073979240
 43      -0.162321199625
 44      -0.000551917628
 45      -0.009499945593
 46      -0.000887720336
 47      -0.029920005589
 48      -0.007504325132
 49       0.005109160768
 50      -0.010939388568
 Sym= A
 Ene=        -0.4331531615
 Spin= Alpha
 Occup=  2.0000
  1       0.000910897346
  2       0.136547093988
  3       0.285190194460
  4       0.080659767385
  5      -0.167874468945
  6       0.363888297299
  7       0.362044153351
  8      -0.105116573586
  9       0.253994695611
 10       0.267167793312
 11      -0.014535559704
 12       0.047028577026
 13       0.053496040208
 14      -0.000859594288
 15       0.007001887991
 16      -0.010781562931
 17       0.004255709490
 18       0.009325936066
 19      -0.005880192645
 20       0.004603362482
 21      -0.015328134930
 22       0.007234942995
 23       0.004874459486
 24      -0.079422223416
 25      -0.039003074988
 26      -0.013254455446
 27       0.002800473699
 28       0.017868508092
 29       0.017573797494
 30       0.001442747605
 31       0.013508273954
 32       0.010584455406
 33      -0.096679734733
 34      -0.044518136143
 35      -0.004270398524
 36      -0.011739851836
 37       0.001237296107
 38       0.018029589415
 39      -0.009325159026
 40       0.007078946757
 41       0.010960062491
 42      -0.129399039482
 43      -0.065212798834
 44       0.001079743658
 45      -0.010703771170
 46       0.014106142051
 47      -0.005225917707
 48      -0.006784499070
 49       0.011068324286
 50       0.010264156374
 Sym= A
 Ene=         0.0353501582
 Spin= Alpha
 Occup=  0.0000
  1       0.010905809172
  2      -0.049731083101
  3      -0.421556049897
  4      -2.142486194929
  5       0.012958166912
  6       0.021786334747
  7       0.047934298181
  8      -0.020504367020
  9       0.078361283546
 10       0.093443881436
 11      -0.005743042203
 12       0.127591222066
 13       0.167093987457
 14       0.002834280155
 15       0.002611548312
 16      -0.002067456182
 17      -0.000982418335
 18       0.001105071834
 19      -0.006709700053
 20      -0.012200266547
 21       0.013487832077
 22      -0.001295911829
 23      -0.015298868081
 24       0.003656880938
 25       0.518772737846
 26       0.704879603295
 27      -0.000636539238
 28       0.000660310647
 29       0.002052759272
 30      -0.093222425801
 31       0.017853395340
 32       0.011583413283
 33       0.005385583076
 34       0.402266228496
 35       0.755115284040
 36       0.000482173046
 37      -0.002075866526
 38       0.001990364251
 39       0.009939286043
 40       0.073048381585
 41      -0.012594013648
 42       0.016172281572
 43       0.340921158480
 44       0.767558004368
 45      -0.000912119832
 46       0.000844468090
 47      -0.005685331162
 48       0.012321912620
 49      -0.007553671402
 50       0.062526380452
 Sym= A
 Ene=         0.0595964746
 Spin= Alpha
 Occup=  0.0000
  1       0.000335695137
  2       0.001767671619
  3       0.001493559314
  4      -0.024758682675
  5       0.017774621061
  6       0.046561895654
  7      -0.044218231954
  8       0.066961253394
  9       0.135241977162
 10      -0.102231625293
 11       0.451629628472
 12       0.750790943584
 13      -0.547729155646
 14      -0.000707306829
 15       0.000327124663
 16       0.000954214060
 17       0.002790475868
 18      -0.000878847180
 19       0.019925072030
 20      -0.012851476060
 21       0.001663052245
 22       0.016903750950
 23       0.005425773575
 24       0.005506541794
 25      -0.317430739901
 26      -2.030133390640
 27      -0.001108920133
 28       0.001614113036
 29      -0.000529073383
 30       0.077122449564
 31      -0.075087423092
 32       0.049678260355
 33      -0.011166082773
 34       0.477979430881
 35       3.818823733514
 36       0.000816227394
 37      -0.005400280853
 38      -0.002450361603
 39       0.033193226377
 40       0.141662967332
 41      -0.009894465975
 42       0.000651115381
 43      -0.142668725804
 44      -1.773647627715
 45       0.001300081959
 46       0.002070870021
 47       0.004488181788
 48      -0.049062391081
 49      -0.028471846127
 50      -0.047133859477
 Sym= A
 Ene=         0.0596289649
 Spin= Alpha
 Occup=  0.0000
  1       0.003671963117
  2       0.003754305938
  3      -0.121267907617
  4      -0.536915087671
  5      -0.047416725314
  6       0.006046640602
  7      -0.043450906345
  8      -0.140848171390
  9       0.000480522819
 10      -0.101028995025
 11      -0.875343754509
 12      -0.028414983395
 13      -0.543822511249
 14       0.001615530487
 15      -0.000077618179
 16      -0.000687793096
 17      -0.003758135346
 18       0.000231891823
 19       0.016479113892
 20       0.001052170392
 21       0.011155412023
 22      -0.004131168153
 23       0.013413218413
 24      -0.014380755905
 25       0.642874187595
 26       3.884099635399
 27       0.002290769786
 28      -0.002025136997
 29      -0.003124167130
 30      -0.152194683459
 31       0.013326427528
 32       0.066249459999
 33      -0.000230115179
 34      -0.094904013584
 35      -0.752203572658
 36      -0.001342814250
 37      -0.000072004280
 38      -0.001815254992
 39       0.043235589131
 40      -0.035061137425
 41       0.053028914133
 42       0.001661811076
 43      -0.240474395999
 44      -2.848664128086
 45      -0.000499615405
 46       0.000397243675
 47       0.006190209237
 48       0.005001005312
 49       0.027797656476
 50      -0.096311983577
 Sym= A
 Ene=         0.1479176187
 Spin= Alpha
 Occup=  0.0000
  1       0.016729162673
  2       0.047464337223
  3      -0.350606508737
  4      -3.480567215640
  5       0.041823959098
  6      -0.113851396676
  7      -0.127187083445
  8      -0.034042543148
  9       0.072586994203
 10       0.035362574616
 11      -0.781192395163
 12       1.270620116001
 13       1.030743699345
 14      -0.000507212796
 15      -0.006938610931
 16       0.011782590817
 17      -0.001309194717
 18      -0.010030583111
 19       0.009501730163
 20       0.032460837818
 21      -0.030989523948
 22       0.009976712417
 23       0.050115555096
 24       0.044869742274
 25       1.051498576944
 26       0.791765965496
 27      -0.030870506985
 28      -0.006640390740
 29      -0.006529066277
 30       0.090402788366
 31      -0.202611733292
 32      -0.185929423113
 33       0.011510125978
 34       1.025102274614
 35       0.449156595993
 36       0.010464477215
 37       0.028583713290
 38      -0.009511746140
 39       0.122498226445
 40      -0.017826949686
 41      -0.166095114282
 42      -0.029751940853
 43       0.815845586612
 44       0.250443911233
 45       0.004433820639
 46      -0.000595422498
 47       0.022576933343
 48       0.115804743137
 49      -0.139712790230
 50       0.072416923148
 Sym= A
 Ene=         0.1908821571
 Spin= Alpha
 Occup=  0.0000
  1       0.041738158098
  2       0.214107159578
  3      -0.719065346789
  4      -4.395139305184
  5      -0.036995372465
  6       0.015098238801
  7      -0.045387073923
  8      -0.304531796035
  9       0.154315844562
 10      -0.083085430334
 11      -0.772666025757
 12       0.053919554188
 13      -0.871818916925
 14      -0.002847947983
 15       0.003336569677
 16      -0.004406131019
 17       0.001978111586
 18       0.010524110782
 19       0.043827141426
 20      -0.038053540326
 21       0.064839656342
 22      -0.033716093568
 23      -0.071153023982
 24       0.077710505404
 25       2.270332238604
 26       1.935466226718
 27      -0.026662708053
 28       0.000678068579
 29      -0.004055047700
 30      -0.600104646685
 31       0.173542380313
 32       0.153027818945
 33       0.006282407548
 34       0.746684042695
 35       0.574933885529
 36       0.003744219029
 37       0.020523871930
 38      -0.012670463766
 39      -0.032964033887
 40       0.325520520016
 41       0.011084169490
 42      -0.112389211754
 43      -0.426701826699
 44      -0.337766100391
 45      -0.000889536346
 46      -0.001977606215
 47       0.006459898018
 48      -0.019794635751
 49       0.021244525698
 50       0.216368149886
 Sym= A
 Ene=         0.2012068747
 Spin= Alpha
 Occup=  0.0000
  1       0.002520700217
  2       0.019111238397
  3       0.071843974301
  4      -0.405415171860
  5      -0.096327209872
  6      -0.070911626712
  7       0.004197951517
  8       0.380056263131
  9       0.349899610193
 10      -0.081234058954
 11       2.539230859742
 12       2.060048299721
 13      -0.607261722689
 14      -0.000953590108
 15       0.000562455327
 16      -0.003417204015
 17      -0.011653237591
 18       0.004929766233
 19       0.018117876401
 20      -0.007634791826
 21       0.048144668513
 22       0.135753337456
 23      -0.052159414363
 24      -0.115040839058
 25      -2.543965718949
 26      -3.614279708455
 27       0.008389555344
 28      -0.002095500707
 29       0.000551371332
 30       0.472373550353
 31      -0.109276430351
 32      -0.017693947076
 33       0.119465546331
 34       2.780720997158
 35       3.650575060788
 36       0.018188302771
 37       0.029285300369
 38      -0.012386502586
 39       0.155503443216
 40       0.593309465650
 41      -0.095484223979
 42      -0.020872219169
 43       0.091869195231
 44       0.123361532188
 45       0.007063937132
 46       0.006487815926
 47      -0.001318485347
 48       0.024006084364
 49      -0.025027484508
 50       0.090963815428
 Sym= A
 Ene=         0.2036047863
 Spin= Alpha
 Occup=  0.0000
  1       0.014168642592
  2       0.076989161611
  3      -0.089077094449
  4      -1.645368273094
  5      -0.072966595751
  6       0.036145174321
  7      -0.116463845205
  8       0.121937287978
  9      -0.088515801607
 10       0.318639026283
 11       1.430842804148
 12      -1.159762140354
 13       2.365721749073
 14       0.018427553000
 15       0.005650909735
 16      -0.000628533651
 17       0.000368479604
 18       0.005397995200
 19      -0.162474586194
 20      -0.054637135867
 21       0.026684563015
 22      -0.015009103987
 23      -0.039465340251
 24      -0.053186207926
 25      -0.640178244286
 26      -1.563671531377
 27      -0.005254398839
 28       0.004948948142
 29      -0.006028758004
 30       0.014227941206
 31       0.114609537883
 32      -0.160734411886
 33      -0.056714914345
 34      -0.369298782345
 35      -0.907987249420
 36      -0.003851656462
 37      -0.002047889653
 38       0.003693871142
 39      -0.077651375481
 40       0.052999286043
 41      -0.094266187656
 42       0.064751344874
 43       2.229911886558
 44       3.175753318400
 45       0.023349063365
 46      -0.018611257587
 47       0.041343855768
 48       0.127007043965
 49      -0.027263563917
 50       0.561205492839
 Sym= A
 Ene=         0.2598908797
 Spin= Alpha
 Occup=  0.0000
  1       0.021434223650
  2       0.033577433884
  3      -0.526034828545
  4      -2.718444851175
  5       0.072895068981
  6      -0.121473336535
  7       0.241550864652
  8       0.005860530883
  9      -0.003765803372
 10       0.146038092154
 11      -0.163809996189
 12       0.323208355576
 13      -0.162927215330
 14       0.013332980252
 15       0.020508228611
 16      -0.013043135684
 17       0.001650562299
 18      -0.010064060440
 19      -0.023563337539
 20      -0.055910781872
 21       0.040079995215
 22       0.001200848088
 23       0.004754484323
 24       0.020940681186
 25       0.920035115592
 26       0.866242613376
 27      -0.014782582641
 28      -0.006925963014
 29       0.016735439446
 30      -0.335532356336
 31      -0.030977225931
 32       0.289474272010
 33      -0.020851050726
 34       0.590115434159
 35       1.039492128950
 36       0.011866664837
 37       0.015409411403
 38       0.005255610989
 39       0.179885690966
 40       0.464430748142
 41       0.090004341105
 42       0.177232509902
 43       1.151105815943
 44      -1.091454409607
 45      -0.001322946935
 46      -0.001092715305
 47       0.003637168907
 48      -0.198796915803
 49       0.092877676963
 50      -0.495164132334
 Sym= A
 Ene=         0.3084876445
 Spin= Alpha
 Occup=  0.0000
  1       0.009955158506
  2      -0.014178416206
  3      -0.299356358266
  4      -2.116079420112
  5       0.136902557568
  6       0.142189812272
  7      -0.015515354379
  8       0.172934836644
  9       0.127334016210
 10      -0.014301563082
 11      -0.289413936700
 12      -0.041780343945
 13       0.123452170229
 14       0.006453353996
 15      -0.012097486912
 16      -0.028539678045
 17      -0.014227518729
 18       0.009450069572
 19      -0.040033198044
 20       0.062796419467
 21       0.128899742173
 22       0.105108996177
 23      -0.054217550810
 24      -0.026491329836
 25       0.209146203373
 26       1.284056807266
 27      -0.012560361079
 28       0.006883954009
 29      -0.005818617055
 30      -0.425862183376
 31       0.346042022175
 32      -0.086986434220
 33       0.127124220604
 34       1.454982081658
 35      -0.852126444863
 36       0.003267169586
 37       0.011442112520
 38       0.006474437463
 39       0.011048250544
 40      -0.480649869596
 41       0.415704861883
 42       0.039211066405
 43       0.701665299306
 44       0.051600638565
 45       0.007915183866
 46       0.004350887740
 47       0.005107002899
 48       0.287239978333
 49       0.387117574824
 50      -0.012807258648
 Sym= A
 Ene=         0.3428690652
 Spin= Alpha
 Occup=  0.0000
  1       0.009263721707
  2      -0.014209857768
  3      -0.245004473175
  4      -1.372987098126
  5       0.063320131220
  6       0.066154691653
  7      -0.000104685386
  8       0.110684963528
  9      -0.035319184854
 10      -0.079402568340
 11       0.651220589580
 12       0.471816484163
 13       0.131077787852
 14      -0.015741163208
 15       0.040777701793
 16       0.028983374221
 17       0.008232656040
 18       0.022679970296
 19       0.085715400963
 20      -0.271541402480
 21      -0.185216247738
 22      -0.020802432301
 23      -0.152440588641
 24       0.008609539685
 25       1.222345509196
 26      -0.289801026362
 27       0.008810587662
 28       0.014534536306
 29       0.023290449746
 30      -0.507079994838
 31       0.444993182196
 32       0.827733622755
 33       0.032540880021
 34       0.131052783318
 35       0.305603402395
 36      -0.005068104495
 37       0.012501429781
 38      -0.018600917489
 39      -0.521154717059
 40      -0.741159481965
 41      -0.589520536477
 42       0.016159123777
 43       0.448159135402
 44       0.220803684814
 45      -0.011016623017
 46      -0.009388868810
 47       0.005608881208
 48      -0.694115712368
 49      -0.489331120176
 50       0.044298113542
 Sym= A
 Ene=         0.3451527333
 Spin= Alpha
 Occup=  0.0000
  1       0.007019038401
  2       0.014473741247
  3      -0.155647853852
  4       0.056197840903
  5       0.024153587679
  6      -0.019131835921
  7       0.048276694750
  8       0.086053185874
  9      -0.116011416923
 10       0.119166181383
 11       0.134852150079
 12      -0.167671053550
 13       0.448535324809
 14       0.008823588197
 15      -0.030569392799
 16       0.018243537733
 17       0.007581346482
 18       0.041324242801
 19      -0.020160106888
 20       0.237795386628
 21      -0.107561519825
 22      -0.047302970666
 23      -0.324896330388
 24      -0.008038308335
 25       0.199368875742
 26      -0.040723756480
 27       0.006704787903
 28       0.032189770687
 29      -0.022602754021
 30      -0.260947017958
 31       0.832602354825
 32      -0.618177894087
 33       0.011698947216
 34       0.628517955196
 35      -0.121162864558
 36      -0.029264751312
 37      -0.000763343640
 38      -0.002340713579
 39      -0.618043366705
 40       0.576613556434
 41      -0.191243641975
 42      -0.022796673039
 43      -0.747544902077
 44       0.139248103992
 45       0.008402988731
 46      -0.003437755881
 47       0.003837834612
 48       0.375769746694
 49      -0.500250381740
 50      -0.867622080556
 Sym= A
 Ene=         0.3584517073
 Spin= Alpha
 Occup=  0.0000
  1       0.001596262095
  2       0.066977884734
  3      -0.019109987483
  4       2.531457165641
  5       0.074221171788
  6       0.019820781752
  7       0.013650713428
  8      -0.006516895134
  9       0.218375466878
 10       0.143880518387
 11       0.059099037967
 12       0.103063716854
 13      -0.105941101006
 14       0.010401247064
 15       0.002923908926
 16       0.025406846250
 17      -0.027231447280
 18      -0.020089768963
 19      -0.052270677893
 20      -0.041132937566
 21      -0.109433818952
 22       0.164736197072
 23       0.128742381141
 24      -0.067477380073
 25      -0.856386965340
 26       0.133542604473
 27       0.004143077302
 28      -0.017259914014
 29      -0.000825482008
 30      -1.138308238033
 31      -0.411519936451
 32       0.025756417095
 33      -0.026635650239
 34      -1.321057155393
 35      -0.220023434097
 36       0.009554179255
 37      -0.002186324377
 38      -0.005629896516
 39       0.521975368543
 40      -0.450884045971
 41      -0.449014071367
 42      -0.018715104723
 43      -0.877713456227
 44      -0.328870806289
 45      -0.004282239905
 46       0.000604579990
 47       0.002369069358
 48       0.175848501192
 49      -0.383885783000
 50      -0.200598992326
 Sym= A
 Ene=         0.4721770300
 Spin= Alpha
 Occup=  0.0000
  1       0.002921195986
  2      -0.052459213235
  3      -0.490222007389
  4      -5.519108730691
  5      -0.127986680523
  6       0.186341589924
  7       0.148155848676
  8      -0.741364037128
  9       0.849346784546
 10       0.623969906957
 11      -1.178793833722
 12       1.233416222666
 13       0.787245995420
 14       0.014376279843
 15       0.002316400611
 16       0.008659293265
 17      -0.011920001874
 18      -0.003545944406
 19       0.065917722388
 20       0.066121070542
 21      -0.077600152054
 22      -0.018173698838
 23       0.111256680962
 24       0.041157676094
 25       3.265761536515
 26       0.953208193562
 27      -0.041194089572
 28      -0.013772081439
 29      -0.003974008042
 30       0.446867911330
 31      -0.710462956669
 32      -0.453165318297
 33       0.028489044157
 34       1.617680871585
 35       0.323923764846
 36       0.019309375533
 37       0.018658780034
 38      -0.006643797525
 39       0.344418914342
 40      -0.613949124209
 41      -0.363361392249
 42       0.049132312172
 43       1.283487233084
 44       0.086859663362
 45       0.001064175043
 46       0.003644270417
 47      -0.000557527322
 48       0.353100298068
 49      -0.530902045463
 50      -0.270854019529
 Sym= A
 Ene=         0.5179091858
 Spin= Alpha
 Occup=  0.0000
  1       0.001717834965
  2      -0.001989007275
  3      -0.029263339384
  4      -0.043316420641
  5       0.030071423538
  6       0.055652364186
  7      -0.051057756422
  8       0.200500662284
  9       0.297015594072
 10      -0.245439241125
 11       0.527810100448
 12       1.128888573819
 13      -0.982626869213
 14       0.018282509474
 15      -0.005965572921
 16      -0.006494969791
 17       0.016465744520
 18      -0.008787662932
 19      -0.026503816620
 20       0.053452071904
 21       0.071017219822
 22       0.035692469152
 23       0.014052815705
 24      -0.002786648302
 25      -0.859892849856
 26      -0.498892969070
 27       0.002882361510
 28      -0.013159242473
 29       0.013657774769
 30       0.070597610882
 31       0.101090967929
 32      -0.563155148374
 33      -0.021356311707
 34       0.862314687858
 35       1.033476963032
 36      -0.005890533464
 37       0.016314234253
 38      -0.027160488992
 39       0.655060178653
 40       0.005266312305
 41       1.643826736937
 42       0.037605599674
 43       0.003806174205
 44      -0.502223199632
 45       0.017663562370
 46       0.031826618898
 47      -0.013278245586
 48      -0.809671497095
 49      -1.355871706081
 50       0.450558678107
 Sym= A
 Ene=         0.5338674607
 Spin= Alpha
 Occup=  0.0000
  1       0.008729652039
  2      -0.018740687621
  3      -0.408902852220
  4      -0.530597035839
  5      -0.059153941827
  6      -0.010190911624
  7      -0.074683818716
  8      -0.270853540685
  9      -0.168449667084
 10      -0.550099284794
 11      -1.501613544589
 12       0.292101487310
 13      -1.609178196518
 14       0.033518786826
 15       0.033481840495
 16      -0.007302106496
 17      -0.009110029371
 18      -0.004303507169
 19      -0.008125053570
 20      -0.187938935009
 21       0.025604817951
 22      -0.046790822949
 23       0.040418163845
 24      -0.029704684292
 25       0.115684192784
 26       1.364488498824
 27      -0.014721772297
 28      -0.000770503125
 29      -0.003473189085
 30       0.560371784556
 31      -0.155115268702
 32       2.380138986753
 33      -0.028929171284
 34      -0.843661542689
 35       0.033081247887
 36       0.010251019052
 37       0.001642041243
 38      -0.002318683741
 39       0.201195962259
 40      -0.289426306621
 41       0.818185377858
 42       0.121902491090
 43       1.141347024133
 44      -1.125937105720
 45      -0.040294852382
 46       0.017437816016
 47      -0.018535861100
 48       1.580626164426
 49      -0.697473272706
 50       0.951871457946
 Sym= A
 Ene=         0.5460565481
 Spin= Alpha
 Occup=  0.0000
  1       0.000669675202
  2       0.008449164323
  3       0.195018434504
  4       0.177954819278
  5       0.102348549349
  6       0.089805416663
  7      -0.006908373907
  8       0.686124449801
  9       0.738628968541
 10      -0.037284135439
 11       1.903317901244
 12       1.553448858465
 13      -0.372392531078
 14       0.004310972265
 15       0.002477963463
 16       0.008503601296
 17       0.049488266932
 18      -0.028186597786
 19      -0.030159360068
 20      -0.016292951942
 21       0.031817127880
 22       0.060855271640
 23       0.103439329549
 24       0.019256177255
 25      -0.863828686546
 26      -1.831522405894
 27       0.023157617854
 28       0.004945994379
 29      -0.003574134014
 30      -0.401735234370
 31      -2.356235134578
 32       0.460016749464
 33      -0.049823421483
 34       0.103785951346
 35       1.675421444711
 36       0.043248171462
 37       0.031048215627
 38      -0.012409445032
 39      -1.816574804602
 40      -0.075714624415