[Molden Format]
[Title]
 This title was manually added for the tests
[Atoms] Angs
 N     1  7    -0.007455     0.044763     0.054913
 H     2  1     0.791232     0.011334     0.023580
 H     3  1    -0.313244    -0.879581     0.283126
 H     4  1    -0.374402     0.246289    -1.069692
[GTO]
  1 0
 s    8 1.00
  0.9046000000D+04  0.6996174134D-03
  0.1357000000D+04  0.5386054630D-02
  0.3093000000D+03  0.2739102119D-01
  0.8773000000D+02  0.1031505920D+00
  0.2856000000D+02  0.2785706633D+00
  0.1021000000D+02  0.4482948495D+00
  0.3838000000D+01  0.2780859284D+00
  0.7466000000D+00  0.1543156123D-01
 s    8 1.00
  0.9046000000D+04 -0.3049900960D-03
  0.1357000000D+04 -0.2408026379D-02
  0.3093000000D+03 -0.1194444873D-01
  0.8773000000D+02 -0.4892599290D-01
  0.2856000000D+02 -0.1344727247D+00
  0.1021000000D+02 -0.3151125777D+00
  0.3838000000D+01 -0.2428578325D+00
  0.7466000000D+00  0.1094382207D+01
 s    1 1.00
  0.2248000000D+00  0.1000000000D+01
 s    1 1.00
  0.6124000000D-01  0.1000000000D+01
 p    3 1.00
  0.1355000000D+02  0.5890567677D-01
  0.2917000000D+01  0.3204611067D+00
  0.7973000000D+00  0.7530420618D+00
 p    1 1.00
  0.2185000000D+00  0.1000000000D+01
 p    1 1.00
  0.5611000000D-01  0.1000000000D+01
 d    1 1.00
  0.8170000000D+00  0.1000000000D+01
 d    1 1.00
  0.2300000000D+00  0.1000000000D+01

  2 0
 s    3 1.00
  0.1301000000D+02  0.3349872639D-01
  0.1962000000D+01  0.2348008012D+00
  0.4446000000D+00  0.8136829579D+00
 s    1 1.00
  0.1220000000D+00  0.1000000000D+01
 s    1 1.00
  0.2974000000D-01  0.1000000000D+01
 p    1 1.00
  0.7270000000D+00  0.1000000000D+01
 p    1 1.00
  0.1410000000D+00  0.1000000000D+01

  3 0
 s    3 1.00
  0.1301000000D+02  0.3349872639D-01
  0.1962000000D+01  0.2348008012D+00
  0.4446000000D+00  0.8136829579D+00
 s    1 1.00
  0.1220000000D+00  0.1000000000D+01
 s    1 1.00
  0.2974000000D-01  0.1000000000D+01
 p    1 1.00
  0.7270000000D+00  0.1000000000D+01
 p    1 1.00
  0.1410000000D+00  0.1000000000D+01

  4 0
 s    3 1.00
  0.1301000000D+02  0.3349872639D-01
  0.1962000000D+01  0.2348008012D+00
  0.4446000000D+00  0.8136829579D+00
 s    1 1.00
  0.1220000000D+00  0.1000000000D+01
 s    1 1.00
  0.2974000000D-01  0.1000000000D+01
 p    1 1.00
  0.7270000000D+00  0.1000000000D+01
 p    1 1.00
  0.1410000000D+00  0.1000000000D+01


[MO]
 Ene=   -15.5452
 Spin= Alpha
 Occup=   2.000000
   1   1.002730
   2   0.005420
   3  -0.005780
   4  -0.001670
   5   0.001250
   6  -0.001210
   7  -0.000930
   8   0.000080
   9   0.000530
  10   0.000970
  11   0.000090
  12   0.000060
  13   0.000240
  14  -0.000290
  15  -0.000910
  16  -0.001290
  17  -0.000070
  18  -0.000210
  19   0.000070
  20   0.001640
  21   0.001890
  22   0.001880
  23   0.000020
  24   0.000060
  25  -0.000060
  26  -0.000520
  27  -0.000760
  28   0.000120
  29   0.000650
  30   0.000100
  31   0.000080
  32   0.000350
  33  -0.000260
  34  -0.000360
  35   0.000150
  36   0.000020
  37   0.000210
  38  -0.000110
  39  -0.000220
  40   0.000080
  41   0.000050
  42  -0.000010
  43  -0.000240
  44   0.000420
  45   0.000480
  46   0.000270
  47   0.000020
  48  -0.000030
  49   0.000060
  50   0.000080
  51  -0.000120
  52   0.000160
 Ene=    -1.1811
 Spin= Alpha
 Occup=   2.000000
   1  -0.023920
   2   0.393850
   3   0.116700
   4  -0.063550
   5   0.106770
   6  -0.055810
   7  -0.017900
   8  -0.075270
   9   0.028290
  10  -0.013760
  11  -0.025570
  12   0.001180
  13  -0.010000
  14   0.014390
  15  -0.003900
  16  -0.007180
  17  -0.001610
  18  -0.002250
  19  -0.000260
  20  -0.056740
  21  -0.022920
  22  -0.005050
  23  -0.004110
  24   0.004180
  25   0.005620
  26   0.329360
  27   0.235840
  28   0.026500
  29  -0.032980
  30  -0.002440
  31   0.000250
  32  -0.064250
  33  -0.000800
  34  -0.002400
  35   0.193420
  36   0.044760
  37   0.000340
  38   0.015400
  39   0.029940
  40  -0.009380
  41   0.002790
  42   0.017310
  43  -0.006100
  44   0.107000
  45  -0.030170
  46  -0.009210
  47   0.010760
  48  -0.006800
  49   0.021630
  50  -0.006820
  51   0.003310
  52  -0.011620
 Ene=    -0.6804
 Spin= Alpha
 Occup=   2.000000
   1   0.001450
   2  -0.037270
   3  -0.148580
   4  -0.050800
   5   0.446320
   6   0.190280
   7  -0.022780
   8   0.101880
   9   0.055960
  10  -0.000050
  11  -0.018920
  12  -0.005980
  13   0.000890
  14   0.034110
  15  -0.027790
  16  -0.009790
  17  -0.013690
  18  -0.007620
  19   0.004770
  20  -0.035250
  21   0.029590
  22   0.014580
  23   0.008380
  24  -0.004530
  25  -0.013120
  26   0.380490
  27   0.250980
  28   0.027910
  29  -0.015730
  30   0.011080
  31   0.001990
  32  -0.037440
  33  -0.010530
  34  -0.000980
  35  -0.312470
  36  -0.184800
  37  -0.013470
  38   0.004360
  39  -0.024600
  40   0.006440
  41  -0.019050
  42  -0.032970
  43   0.008390
  44  -0.090270
  45  -0.050450
  46  -0.003070
  47   0.008190
  48   0.006730
  49  -0.009380
  50  -0.006200
  51   0.000130
  52  -0.010000
 Ene=    -0.5872
 Spin= Alpha
 Occup=   2.000000
   1  -0.000850
   2   0.035510
   3   0.130240
   4   0.041240
   5  -0.141090
   6   0.287800
   7  -0.301280
   8  -0.061840
   9   0.133510
  10  -0.161060
  11  -0.003480
  12   0.009560
  13  -0.012450
  14  -0.006570
  15  -0.016920
  16   0.026220
  17   0.001570
  18   0.005880
  19   0.001260
  20   0.005440
  21   0.002980
  22  -0.007230
  23   0.010740
  24  -0.007440
  25  -0.000510
  26  -0.106350
  27  -0.048640
  28  -0.004590
  29   0.004820
  30   0.013100
  31  -0.015900
  32   0.003060
  33  -0.000010
  34   0.004900
  35  -0.246400
  36  -0.111290
  37  -0.003650
  38  -0.015130
  39  -0.017710
  40  -0.005090
  41  -0.007720
  42  -0.007840
  43   0.005530
  44   0.346250
  45   0.162970
  46   0.000570
  47   0.009490
  48   0.000890
  49   0.029850
  50   0.007550
  51  -0.005070
  52   0.011330
 Ene=    -0.4330
 Spin= Alpha
 Occup=   2.000000
   1  -0.001060
   2   0.134270
   3   0.285250
   4   0.075350
   5  -0.167910
   6   0.363910
   7   0.361990
   8  -0.106290
   9   0.254990
  10   0.267440
  11  -0.015200
  12   0.047560
  13   0.053780
  14   0.002250
  15  -0.005080
  16  -0.002580
  17   0.009340
  18   0.007050
  19  -0.010790
  20   0.004550
  21  -0.007790
  22  -0.010350
  23   0.004600
  24   0.004440
  25  -0.015080
  26  -0.078880
  27  -0.029030
  28  -0.012500
  29   0.002700
  30   0.017900
  31   0.017600
  32  -0.001340
  33   0.014020
  34   0.010910
  35  -0.096400
  36  -0.039210
  37  -0.004080
  38  -0.011680
  39   0.001440
  40   0.017990
  41  -0.009220
  42   0.008770
  43   0.010760
  44  -0.129320
  45  -0.062430
  46   0.001130
  47  -0.010680
  48   0.014090
  49  -0.005160
  50  -0.006780
  51   0.011150
  52   0.011250
 Ene=     0.0353
 Spin= Alpha
 Occup=   0.000000
   1  -0.003300
   2   0.062980
   3   0.548650
   4   2.269070
   5  -0.014940
   6  -0.019930
   7  -0.046880
   8   0.033080
   9  -0.090020
  10  -0.100900
  11   0.025200
  12  -0.139890
  13  -0.172810
  14  -0.000230
  15  -0.001380
  16  -0.004430
  17  -0.002010
  18  -0.002980
  19   0.002940
  20   0.043390
  21   0.039560
  22   0.052960
  23   0.020080
  24   0.015420
  25  -0.018070
  26  -0.003040
  27  -0.694200
  28  -0.738370
  29  -0.002770
  30  -0.000470
  31  -0.001860
  32   0.145810
  33  -0.026880
  34  -0.016510
  35  -0.006610
  36  -0.490990
  37  -0.759580
  38   0.000230
  39   0.004390
  40  -0.002460
  41  -0.012720
  42  -0.105510
  43   0.016940
  44  -0.018590
  45  -0.391350
  46  -0.761170
  47   0.001080
  48  -0.000870
  49   0.006350
  50  -0.013910
  51   0.006990
  52  -0.083910
 Ene=     0.0596
 Spin= Alpha
 Occup=   0.000000
   1  -0.001720
   2  -0.004970
   3  -0.141650
   4  -0.426160
   5  -0.045960
   6  -0.028320
   7  -0.001900
   8  -0.153840
   9  -0.086780
  10  -0.000330
  11  -0.953000
  12  -0.528420
  13  -0.018320
  14  -0.004820
  15   0.003060
  16   0.001420
  17   0.001150
  18  -0.000110
  19  -0.001490
  20  -0.032970
  21  -0.007230
  22  -0.023190
  23   0.003880
  24   0.008100
  25   0.008920
  26  -0.014280
  27   0.760690
  28   4.227500
  29   0.003750
  30  -0.002660
  31  -0.002000
  32  -0.186490
  33   0.065140
  34   0.016390
  35   0.008210
  36  -0.355660
  37  -3.159730
  38  -0.001790
  39   0.002830
  40   0.000500
  41   0.010120
  42  -0.107870
  43   0.043200
  44   0.001790
  45  -0.054960
  46  -0.861930
  47  -0.001310
  48  -0.001140
  49   0.001230
  50   0.037890
  51   0.039750
  52  -0.028320
 Ene=     0.0596
 Spin= Alpha
 Occup=   0.000000
   1   0.000210
   2   0.000710
   3   0.118530
   4   0.421550
   5   0.018960
   6  -0.037510
   7   0.062390
   8   0.051610
   9  -0.102610
  10   0.141400
  11   0.275410
  12  -0.531010
  13   0.768840
  14   0.000770
  15  -0.000010
  16  -0.000390
  17   0.000210
  18  -0.000280
  19   0.000000
  20   0.019700
  21   0.035590
  22  -0.010510
  23  -0.011550
  24   0.009550
  25  -0.010160
  26   0.005790
  27  -0.262830
  28  -1.185990
  29  -0.001690
  30   0.000250
  31   0.002600
  32   0.064330
  33   0.042700
  34  -0.082970
  35   0.007870
  36  -0.310790
  37  -2.268100
  38   0.000500
  39   0.004560
  40   0.002930
  41  -0.054420
  42  -0.089420
  43  -0.027620
  44  -0.002370
  45   0.252910
  46   3.243300
  47  -0.000570
  48  -0.001780
  49  -0.007380
  50   0.031640
  51   0.001770
  52   0.093740
 Ene=     0.1443
 Spin= Alpha
 Occup=   0.000000
   1   0.041740
   2   0.042100
   3   1.111290
   4   4.242620
   5  -0.051920
   6   0.119230
   7   0.127570
   8   0.119050
   9  -0.147090
  10  -0.080560
  11   0.892700
  12  -1.299730
  13  -1.022170
  14   0.004130
  15   0.004880
  16   0.007570
  17   0.004660
  18   0.004320
  19  -0.006790
  20   0.297630
  21   0.302360
  22   0.293480
  23  -0.017320
  24  -0.010900
  25   0.001880
  26  -0.047550
  27  -2.184060
  28  -0.963470
  29   0.013140
  30   0.007340
  31   0.007360
  32   0.259430
  33   0.132120
  34   0.142790
  35  -0.020390
  36  -1.567180
  37  -0.468430
  38  -0.007010
  39  -0.017660
  40   0.007460
  41  -0.133210
  42  -0.193780
  43   0.187640
  44   0.015900
  45  -1.107590
  46  -0.233370
  47  -0.003690
  48   0.000780
  49  -0.019300
  50  -0.120420
  51   0.132130
  52  -0.207350
 Ene=     0.1905
 Spin= Alpha
 Occup=   0.000000
   1  -0.029260
   2  -0.189500
   3   0.962400
   4   4.501380
   5   0.032660
   6  -0.016300
   7   0.040660
   8   0.329230
   9  -0.168700
  10   0.070640
  11   0.817420
  12  -0.017630
  13   0.904510
  14  -0.009580
  15  -0.004710
  16  -0.001540
  17  -0.012400
  18  -0.004220
  19   0.006340
  20   0.134630
  21   0.070480
  22   0.039110
  23   0.081140
  24   0.044670
  25  -0.073150
  26  -0.076110
  27  -2.598440
  28  -2.005510
  29   0.019490
  30  -0.000630
  31   0.004090
  32   0.708750
  33  -0.200160
  34  -0.171790
  35  -0.007110
  36  -0.853090
  37  -0.536210
  38  -0.001840
  39  -0.015020
  40   0.011310
  41   0.034080
  42  -0.382080
  43  -0.010870
  44   0.106110
  45   0.369160
  46   0.371870
  47   0.001580
  48   0.001820
  49  -0.004270
  50   0.022550
  51  -0.027500
  52  -0.249380
 Ene=     0.2010
 Spin= Alpha
 Occup=   0.000000
   1   0.009690
   2   0.033250
   3   0.148590
   4  -0.421030
   5  -0.098110
   6  -0.070580
   7   0.001260
   8   0.384680
   9   0.343250
  10  -0.084890
  11   2.541510
  12   2.057400
  13  -0.593630
  14  -0.009580
  15   0.010960
  16  -0.000330
  17   0.004450
  18   0.000290
  19  -0.002800
  20   0.142420
  21  -0.093010
  22   0.051990
  23  -0.049310
  24  -0.005920
  25   0.045620
  26  -0.113830
  27  -2.633660
  28  -3.607780
  29   0.005650
  30  -0.002030
  31   0.000450
  32   0.503560
  33  -0.116020
  34  -0.023410
  35   0.118030
  36   2.729290
  37   3.651040
  38   0.018650
  39   0.031030
  40  -0.012870
  41   0.153870
  42   0.571970
  43  -0.094900
  44  -0.024180
  45   0.072280
  46   0.146220
  47   0.007300
  48   0.006290
  49  -0.000340
  50   0.025280
  51  -0.027410
  52   0.083680
 Ene=     0.2035
 Spin= Alpha
 Occup=   0.000000
   1   0.019540
   2   0.085330
   3  -0.072380
   4  -1.658960
   5  -0.072540
   6   0.036380
   7  -0.117340
   8   0.120110
   9  -0.093210
  10   0.316020
  11   1.405090
  12  -1.172970
  13   2.365880
  14  -0.005510
  15  -0.006300
  16   0.021550
  17   0.005290
  18   0.005510
  19  -0.000450
  20   0.083880
  21   0.111350
  22  -0.145080
  23  -0.038200
  24  -0.053760
  25   0.025350
  26  -0.052330
  27  -0.647500
  28  -1.521390
  29  -0.005970
  30   0.004940
  31  -0.006080
  32   0.020160
  33   0.113320
  34  -0.162250
  35  -0.058180
  36  -0.407320
  37  -0.931250
  38  -0.003970
  39  -0.002060
  40   0.003670
  41  -0.079240
  42   0.042240
  43  -0.093850
  44   0.063180
  45   2.210240
  46   3.173410
  47   0.023200
  48  -0.018570
  49   0.041420
  50   0.126580
  51  -0.027760
  52   0.555160
 Ene=     0.2596
 Spin= Alpha
 Occup=   0.000000
   1  -0.004020
   2  -0.002890
   3   0.805350
   4   2.925300
   5  -0.075820
   6   0.121250
   7  -0.242420
   8   0.014740
   9  -0.020070
  10  -0.161140
  11   0.167430
  12  -0.328270
  13   0.161550
  14   0.003480
  15   0.007430
  16  -0.013570
  17   0.007990
  18  -0.021380
  19   0.014880
  20   0.086710
  21   0.085970
  22   0.125280
  23   0.007850
  24   0.063390
  25  -0.049780
  26  -0.018810
  27  -1.273270
  28  -0.875070
  29   0.007870
  30   0.006920
  31  -0.016610
  32   0.449820
  33   0.000230
  34  -0.305580
  35   0.016880
  36  -0.789410
  37  -1.048000
  38  -0.010450
  39  -0.011150
  40  -0.006220
  41  -0.179150
  42  -0.537630
  43  -0.084170
  44  -0.183410
  45  -1.261190
  46   1.081910
  47   0.001530
  48   0.001120
  49  -0.002230
  50   0.197970
  51  -0.097390
  52   0.445040
 Ene=     0.3082
 Spin= Alpha
 Occup=   0.000000
   1   0.008800
   2   0.045790
   3   0.571880
   4   2.348880
   5  -0.137940
   6  -0.142660
   7   0.016570
   8  -0.150470
   9  -0.147600
  10   0.001150
  11   0.294750
  12   0.035490
  13  -0.131120
  14   0.016640
  15  -0.006420
  16  -0.003450
  17  -0.011800
  18   0.011150
  19   0.029790
  20  -0.007750
  21   0.166620
  22   0.140540
  23   0.069270
  24  -0.054700
  25  -0.136130
  26   0.026430
  27  -0.585460
  28  -1.289510
  29   0.006510
  30  -0.007350
  31   0.005980
  32   0.531000
  33  -0.383850
  34   0.067910
  35  -0.130750
  36  -1.655900
  37   0.844140
  38  -0.001800
  39  -0.007950
  40  -0.006990
  41   0.000460
  42   0.407020
  43  -0.404970
  44  -0.043560
  45  -0.811900
  46  -0.073790
  47  -0.007760
  48  -0.004110
  49  -0.004160
  50  -0.283280
  51  -0.386150
  52  -0.042420
 Ene=     0.3418
 Spin= Alpha
 Occup=   0.000000
   1  -0.024570
   2  -0.075650
   3  -0.803410
   4  -1.966650
   5   0.057770
   6   0.058690
   7   0.002230
   8   0.067470
   9  -0.022060
  10  -0.051060
  11   0.619900
  12   0.451390
  13   0.179740
  14   0.016920
  15  -0.004880
  16  -0.019150
  17   0.030830
  18   0.038730
  19   0.025400
  20  -0.274010
  21  -0.193860
  22  -0.107750
  23  -0.209690
  24  -0.256550
  25  -0.166190
  26   0.012750
  27   2.009480
  28  -0.287160
  29   0.020620
  30   0.018520
  31   0.020600
  32  -0.631150
  33   0.592600
  34   0.787730
  35   0.038980
  36   0.651760
  37   0.338650
  38  -0.010770
  39   0.005260
  40  -0.016700
  41  -0.609180
  42  -0.477110
  43  -0.575740
  44   0.023870
  45   0.651950
  46   0.282530
  47  -0.010040
  48  -0.009760
  49   0.003610
  50  -0.663860
  51  -0.490250
  52   0.099660
 Ene=     0.3450
 Spin= Alpha
 Occup=   0.000000
   1  -0.000530
   2  -0.003550
   3   0.253450
   4  -0.033410
   5  -0.016280
   6   0.026520
   7  -0.047740
   8  -0.065690
   9   0.109220
  10  -0.127510
  11  -0.066130
  12   0.210710
  13  -0.436370
  14  -0.003440
  15   0.010160
  16  -0.011010
  17  -0.040270
  18   0.033970
  19  -0.014220
  20   0.068570
  21  -0.019720
  22   0.064530
  23   0.317170
  24  -0.260340
  25   0.083660
  26   0.007770
  27  -0.255530
  28   0.014120
  29  -0.008510
  30  -0.031140
  31   0.024710
  32   0.225800
  33  -0.808690
  34   0.686970
  35  -0.009990
  36  -0.724110
  37   0.136270
  38   0.029550
  39   0.003650
  40   0.000080
  41   0.579380
  42  -0.689900
  43   0.128580
  44   0.021900
  45   0.724910
  46  -0.131050
  47  -0.009290
  48   0.002500
  49  -0.002610
  50  -0.433440
  51   0.441640
  52   0.839620
 Ene=     0.3558
 Spin= Alpha
 Occup=   0.000000
   1   0.052940
   2   0.147360
   3   0.794510
   4   2.899200
   5   0.078560
   6   0.029880
   7   0.015790
   8   0.081650
   9   0.135250
  10   0.088640
  11   0.183540
  12   0.129320
  13  -0.071840
  14  -0.025450
  15   0.021100
  16   0.013000
  17  -0.019560
  18   0.004070
  19   0.032330
  20   0.447150
  21   0.164340
  22   0.251930
  23   0.122230
  24  -0.041190
  25  -0.155250
  26  -0.061860
  27  -1.749130
  28   0.057450
  29  -0.012200
  30  -0.013270
  31   0.001690
  32  -0.838440
  33  -0.380030
  34   0.050930
  35  -0.027510
  36  -1.774110
  37  -0.221380
  38   0.010860
  39   0.009830
  40  -0.009610
  41   0.404960
  42  -0.742140
  43  -0.481240
  44  -0.030220
  45  -1.130330
  46  -0.318590
  47  -0.004610
  48  -0.000320
  49   0.006020
  50   0.096640
  51  -0.450120
  52  -0.397660
 Ene=     0.4721
 Spin= Alpha
 Occup=   0.000000
   1   0.004680
   2   0.059900
   3   0.461640
   4   5.518220
   5   0.128640
   6  -0.186760
   7  -0.147970
   8   0.744840
   9  -0.852420
  10  -0.623070
  11   1.179340
  12  -1.235700
  13  -0.786790
  14   0.026860
  15   0.005970
  16  -0.005890
  17   0.003770
  18  -0.002370
  19  -0.008900
  20   0.060820
  21   0.029210
  22  -0.053950
  23  -0.111500
  24  -0.066130
  25   0.077370
  26  -0.044040
  27  -3.277860
  28  -0.952310
  29   0.042450
  30   0.013800
  31   0.003920
  32  -0.445080
  33   0.711830
  34   0.452920
  35  -0.029170
  36  -1.624310
  37  -0.324460
  38  -0.019940
  39  -0.020250
  40   0.007060
  41  -0.344100
  42   0.613500
  43   0.362460
  44  -0.048450
  45  -1.284310
  46  -0.085290
  47  -0.001260
  48  -0.003530
  49  -0.000010
  50  -0.352450
  51   0.531180
  52   0.272540
 Ene=     0.5177
 Spin= Alpha
 Occup=   0.000000
   1  -0.015860
   2  -0.043640
   3  -0.850060
   4  -0.652120
   5   0.028800
   6   0.052450
   7  -0.049790
   8   0.139750
   9   0.320860
  10  -0.220810
  11   0.330910
  12   1.123260
  13  -1.080050
  14   0.003170
  15  -0.022120
  16   0.021730
  17  -0.007230
  18  -0.002170
  19  -0.008850
  20  -0.127030
  21  -0.180510
  22  -0.200810
  23   0.003380
  24   0.029150
  25   0.084270
  26  -0.009840
  27  -0.080260
  28  -0.277870
  29   0.009830
  30  -0.013790
  31   0.012590
  32  -0.168650
  33   0.172730
  34  -0.355610
  35  -0.017340
  36   1.208380
  37   1.023870
  38  -0.007090
  39   0.010710
  40  -0.025820
  41   0.737590
  42   0.193060
  43   1.650660
  44   0.062150
  45   0.369670
  46  -0.546910
  47   0.014560
  48   0.032670
  49  -0.016140
  50  -0.640030
  51  -1.396220
  52   0.705310
 Ene=     0.5236
 Spin= Alpha
 Occup=   0.000000
   1   0.082690
   2   0.224050
   3   4.693680
   4   3.573150
   5   0.029240
   6   0.028280
   7   0.006370
   8   0.436860
   9  -0.022410
  10  -0.014130
  11   1.626310
  12   0.088340
  13   0.915260
  14   0.014700
  15  -0.013020
  16  -0.032610
  17  -0.008460
  18  -0.031530
  19   0.014820
  20   0.928890
  21   0.849390
  22   0.926760
  23   0.048990
  24   0.192800
  25  -0.070880
  26   0.048950
  27  -4.383400
  28  -1.722640
  29  -0.031640
  30   0.002440
  31   0.007680
  32   1.131860
  33  -0.409120
  34  -1.886940
  35  -0.017290
  36  -1.547020
  37   0.175140
  38   0.004410
  39   0.032560
  40  -0.008700
  41  -0.510580
  42  -0.942760
  43  -0.141440
  44  -0.172680
  45  -2.402820
  46   0.521300
  47   0.030430
  48  -0.007580
  49   0.020610
  50  -1.484960
  51   0.320830
  52  -1.689280
 Ene=     0.5442
 Spin= Alpha
 Occup=   0.000000
   1  -0.031290
   2  -0.088530
   3  -2.253300
   4  -1.625150
   5  -0.045610
   6  -0.075940
   7   0.067990
   8  -0.497270
   9  -0.452840
  10   0.503230
  11  -1.118330
  12  -1.476050
  13   1.069960
  14  -0.019870
  15   0.049550
  16  -0.010270
  17   0.028690
  18  -0.012210
  19  -0.008470
  20  -0.432480
  21  -0.374950
  22  -0.373190
  23  -0.135990
  24   0.070360
  25  -0.011730
  26  -0.016510
  27   2.544680
  28   1.235780
  29   0.004790
  30  -0.004820
  31   0.002280
  32  -0.611840
  33   2.237490
  34  -1.310810
  35   0.071650
  36   1.405480
  37  -1.400700
  38  -0.044840
  39  -0.039140
  40   0.014110
  41   1.605940
  42   0.774890
  43  -0.738110
  44  -0.010710
  45  -0.007720
  46   0.591470
  47   0.028250
  48  -0.004120
  49   0.001510
  50  -0.518390
  51   0.508690
  52   0.014980
 Ene=     0.5538
 Spin= Alpha
 Occup=   0.000000
   1   0.050470
   2   0.184310
   3   5.201750
   4   3.854230
   5  -0.134860
   6  -0.041610
   7  -0.131750
   8  -0.535690
   9  -0.698010
  10  -0.982580
  11  -1.594810
  12  -0.541810
  13  -0.962650
  14  -0.039290
  15   0.006330
  16   0.002800
  17   0.007270
  18   0.007580
  19   0.001270
  20   0.812820
  21   0.907770
  22   0.905210
  23   0.038520
  24  -0.051340
  25  -0.058020
  26   0.000900
  27  -3.612310
  28   1.159190
  29  -0.058100
  30  -0.000970
  31   0.005470
  32   2.157000
  33   0.715630
  34   0.937650
  35  -0.033880
  36  -3.263030
  37  -0.952260
  38  -0.008370
  39   0.008910
  40   0.000270
  41   0.688710
  42  -1.554320
  43   0.598010
  44  -0.107750
  45  -2.356440
  46  -1.210100
  47  -0.014410
  48   0.014860
  49   0.000110
  50   0.396550
  51  -0.191090
  52  -1.415020
 Ene=     0.6234
 Spin= Alpha
 Occup=   0.000000
   1  -0.030480
   2  -0.074620
   3  -4.142240
   4  -2.366820
   5  -0.069070
   6   0.081300
   7  -0.199350
   8  -1.616780
   9   0.637510
  10  -1.544300
  11  -0.919650
  12   0.293730
  13  -0.932720
  14  -0.023570
  15   0.015220
  16   0.014880
  17   0.011730
  18  -0.018390
  19   0.010850
  20  -0.708710
  21  -0.479490
  22  -0.388760
  23   0.011190
  24   0.051820
  25  -0.040470
  26   0.030210
  27  12.052630
  28   1.199410
  29   0.003740
  30   0.007640
  31   0.023540
  32  -4.754530
  33  -0.411580
  34  -0.420660
  35   0.095100
  36   0.525850
  37   0.444640
  38   0.020810
  39  -0.021180
  40   0.010730
  41  -0.857140
  42   0.883440
  43  -0.270230
  44  -0.162210
  45  -6.228160
  46  -1.099370
  47   0.014890
  48  -0.001650
  49  -0.013480
  50  -1.788080
  51   0.828490
  52  -2.944390
 Ene=     0.6291
 Spin= Alpha
 Occup=   0.000000
   1  -0.011000
   2  -0.021260
   3  -0.183020
   4  -0.809540
   5   0.023130
   6   0.124690
   7  -0.094620
   8   1.495180
   9   1.906890
  10  -0.936990
  11   0.813740
  12   1.073430
  13  -0.404250
  14   0.035180
  15  -0.035800
  16  -0.007850
  17   0.005750
  18  -0.006220
  19   0.008030
  20   0.134040
  21  -0.415380
  22  -0.092720
  23  -0.171390
  24   0.008360
  25   0.126400
  26  -0.019820
  27  -9.968080
  28  -0.777780
  29   0.018400
  30  -0.042260
  31   0.000200
  32   3.820810
  33   1.409240
  34   0.042740
  35   0.057810
  36  12.354890
  37   1.301580
  38  -0.008620
  39   0.054710
  40  -0.003230
  41   2.750400
  42   4.454180
  43  -1.685360
  44  -0.127110
  45  -0.958050
  46  -0.376910
  47  -0.021310
  48  -0.019880
  49   0.011500
  50   0.511460
  51   0.694350
  52  -0.976090
 Ene=     0.6955
 Spin= Alpha
 Occup=   0.000000
   1  -0.016750
   2  -0.034330
   3  -0.748120
   4  -1.310330
   5  -0.024890
   6   0.114580
   7  -0.112920
   8   0.275410
   9  -0.390930
  10   0.921840
  11   0.179210
  12  -0.310350
  13   0.835880
  14   0.005630
  15   0.017900
  16  -0.022650
  17   0.007740
  18  -0.003150
  19  -0.005660
  20   0.034370
  21   0.519220
  22  -1.268390
  23   0.334660
  24  -0.506050
  25   0.025510
  26  -0.004590
  27  -0.524770
  28  -0.031140
  29   0.003920
  30   0.024050
  31  -0.046170
  32   0.195280
  33  -0.603970
  34   0.932980
  35   0.148690
  36  -2.725920
  37  -0.052670
  38  -0.032540
  39  -0.068130
  40  -0.018490
  41  -0.148870
  42  -0.515560
  43   0.862330
  44  -0.405740
  45   5.950270
  46   0.324790
  47   0.042310
  48  -0.003330
  49   0.139020
  50   0.867740
  51  -0.937940
  52   1.715590
 Ene=     0.7610
 Spin= Alpha
 Occup=   0.000000
   1  -0.023640
   2  -0.031150
   3  -2.327510
   4  -2.664930
   5  -0.217980
   6  -0.146270
   7  -0.023120
   8  -0.659840
   9  -0.395590
  10   0.228310
  11  -0.137660
  12   0.058880
  13   0.179490
  14  -0.004040
  15  -0.008530
  16  -0.001570
  17  -0.006120
  18   0.004240
  19   0.010800
  20   0.591350
  21  -0.991720
  22  -0.724800
  23  -0.357270
  24  -0.103820
  25   0.516380
  26   0.135420
  27   4.287090
  28   0.656680
  29  -0.009970
  30  -0.018430
  31  -0.016660
  32  -2.216280
  33   0.449470
  34   0.248030
  35  -0.303520
  36  -0.219160
  37  -0.180140
  38   0.005970
  39   0.070550
  40  -0.021050
  41  -0.132690
  42  -0.968630
  43   0.458690
  44  -0.215570
  45   1.508030
  46   0.051530
  47   0.005350
  48  -0.023060
  49   0.057620
  50   0.177200
  51   0.083630
  52   0.253790
 Ene=     0.8545
 Spin= Alpha
 Occup=   0.000000
   1  -0.154080
   2  -0.136830
   3  -1.557850
   4   1.527450
   5  -0.107670
   6   0.070780
   7   0.050840
   8  -0.607120
   9   0.294570
  10   0.141220
  11  -0.308260
  12   0.231010
  13   0.114110
  14  -0.009160
  15  -0.010240
  16  -0.021260
  17   0.003340
  18  -0.006010
  19   0.009840
  20  -0.271890
  21  -1.371550
  22  -1.003730
  23   0.703950
  24   0.529270
  25  -0.751630
  26   0.039010
  27   3.750650
  28  -0.021840
  29   0.037090
  30  -0.026070
  31  -0.015710
  32  -2.105940
  33  -0.672520
  34  -0.618220
  35  -0.005400
  36  -0.854600
  37  -0.209660
  38   0.001660
  39  -0.018510
  40   0.000910
  41   0.099740
  42  -0.201190
  43  -0.369820
  44   0.005430
  45  -1.438130
  46  -0.225280
  47  -0.005070
  48   0.002350
  49  -0.007740
  50  -0.135450
  51  -0.094440
  52  -0.433510
 Ene=     0.8996
 Spin= Alpha
 Occup=   0.000000
   1  -0.191790
   2  -0.094370
   3  -2.054490
   4  -2.662830
   5  -0.029410
   6   0.055300
   7  -0.010680
   8   0.349060
   9   0.104550
  10   0.430030
  11  -0.365040
  12   0.378130
  13   0.049360
  14   0.021920
  15  -0.019920
  16  -0.048130
  17  -0.008810
  18  -0.007550
  19  -0.004370
  20  -1.858920
  21  -1.395850
  22  -0.980980
  23   0.587790
  24  -0.250340
  25   0.865990
  26  -0.249710
  27   1.477360
  28   0.334300
  29   0.048620
  30  -0.004400
  31  -0.012650
  32   0.458210
  33  -0.309640
  34   0.483130
  35  -0.223490
  36   2.632000
  37   0.129980
  38   0.000350
  39   0.017430
  40  -0.020620
  41   0.440830
  42   0.591570
  43   0.470790
  44  -0.407540
  45   4.259270
  46  -0.183130
  47   0.032290
  48  -0.038810
  49   0.066510
  50   0.331940
  51   0.265810
  52   1.774770
 Ene=     0.9211
 Spin= Alpha
 Occup=   0.000000
   1  -0.019260
   2  -0.009150
   3  -0.497760
   4  -0.510880
   5  -0.045010
   6  -0.012720
   7  -0.029990
   8  -0.078860
   9  -0.127240
  10   0.105780
  11   0.257980
  12   0.350570
  13  -0.085570
  14   0.005100
  15   0.005370
  16  -0.015270
  17   0.000820
  18   0.005290
  19   0.012010
  20  -0.213000
  21  -0.658060
  22   0.333150
  23  -0.016200
  24  -1.461260
  25  -0.734700
  26  -0.034110
  27   1.994060
  28  -0.187970
  29   0.006220
  30  -0.006710
  31   0.009210
  32  -0.843960
  33  -0.264930
  34   1.259350
  35   0.002360
  36  -1.773530
  37   0.331020
  38  -0.005200
  39   0.004710
  40  -0.002360
  41  -0.346260
  42  -1.136300
  43  -0.494100
  44  -0.115060
  45   1.203110
  46  -0.068530
  47   0.029920
  48   0.003930
  49   0.019850
  50  -0.518400
  51  -0.491240
  52   0.627750
 Ene=     0.9338
 Spin= Alpha
 Occup=   0.000000
   1  -0.182470
   2  -0.102450
   3  -3.138190
   4  -2.596830
   5  -0.068930
   6   0.001100
   7  -0.002030
   8   0.129040
   9   0.184550
  10   0.147380
  11   0.020370
  12   0.173610
  13   0.539170
  14   0.018740
  15  -0.033600
  16  -0.023400
  17  -0.008690
  18  -0.006330
  19   0.020810
  20  -1.804310
  21  -0.983520
  22  -1.505640
  23  -1.316830
  24   0.291650
  25  -0.477120
  26  -0.226500
  27   4.354980
  28   0.049810
  29   0.040310
  30   0.009190
  31  -0.020740
  32  -1.111420
  33   1.161320
  34  -0.406650
  35  -0.277900
  36   4.070920
  37  -0.028360
  38   0.010740
  39   0.052110
  40  -0.027300
  41  -0.519430
  42   1.436980
  43  -0.639240
  44  -0.224480
  45   0.510040
  46   0.267790
  47   0.008490
  48  -0.003090
  49   0.050340
  50  -0.128850
  51  -0.185340
  52  -0.218670
 Ene=     1.1917
 Spin= Alpha
 Occup=   0.000000
   1  -0.093780
   2  -0.077510
   3  -2.107910
   4  -0.900790
   5   0.039900
   6  -0.330440
   7   0.532180
   8  -0.211350
   9   1.265070
  10  -1.538490
  11  -0.121960
  12   0.392540
  13  -0.509700
  14  -0.004880
  15  -0.141840
  16   0.118540
  17  -0.040580
  18   0.029960
  19   0.023960
  20  -0.627690
  21  -0.190800
  22  -1.344960
  23   0.411200
  24  -0.680300
  25   0.197680
  26   0.002990
  27   2.024870
  28   0.105600
  29  -0.018870
  30  -0.119490
  31   0.164820
  32  -0.688980
  33  -0.239790
  34   0.741540
  35  -0.326590
  36   3.302760
  37   0.141370
  38   0.127620
  39   0.286600
  40   0.013460
  41   0.400240
  42   1.243840
  43   0.086230
  44   0.753610
  45  -1.437860
  46  -0.107110
  47  -0.065120
  48  -0.011800
  49  -0.239280
  50  -0.231220
  51   0.042250
  52  -0.430560
 Ene=     1.2713
 Spin= Alpha
 Occup=   0.000000
   1  -0.182600
   2  -0.243410
   3  -3.072980
   4   0.106090
   5   0.258660
   6   0.548760
   7   0.279090
   8  -1.407790
   9  -1.565340
  10  -0.578410
  11  -0.573980
  12  -0.614570
  13  -0.338330
  14  -0.082490
  15   0.166290
  16   0.028410
  17   0.057810
  18  -0.005370