[Molden Format]
[Title]
 This title was manually added for the tests
[Atoms] Angs
 N     1  7    -0.007455     0.044763     0.054913
 H     2  1     0.791232     0.011334     0.023580
 H     3  1    -0.313244    -0.879581     0.283126
 H     4  1    -0.374402     0.246289    -1.069692
[5D10F]
[GTO]
  1 0
 s    8 1.00
  0.9046000000D+04  0.6996174134D-03
  0.1357000000D+04  0.5386054630D-02
  0.3093000000D+03  0.2739102119D-01
  0.8773000000D+02  0.1031505920D+00
  0.2856000000D+02  0.2785706633D+00
  0.1021000000D+02  0.4482948495D+00
  0.3838000000D+01  0.2780859284D+00
  0.7466000000D+00  0.1543156123D-01
 s    8 1.00
  0.9046000000D+04 -0.3049900960D-03
  0.1357000000D+04 -0.2408026379D-02
  0.3093000000D+03 -0.1194444873D-01
  0.8773000000D+02 -0.4892599290D-01
  0.2856000000D+02 -0.1344727247D+00
  0.1021000000D+02 -0.3151125777D+00
  0.3838000000D+01 -0.2428578325D+00
  0.7466000000D+00  0.1094382207D+01
 s    1 1.00
  0.2248000000D+00  0.1000000000D+01
 s    1 1.00
  0.6124000000D-01  0.1000000000D+01
 p    3 1.00
  0.1355000000D+02  0.5890567677D-01
  0.2917000000D+01  0.3204611067D+00
  0.7973000000D+00  0.7530420618D+00
 p    1 1.00
  0.2185000000D+00  0.1000000000D+01
 p    1 1.00
  0.5611000000D-01  0.1000000000D+01
 d    1 1.00
  0.8170000000D+00  0.1000000000D+01
 d    1 1.00
  0.2300000000D+00  0.1000000000D+01

  2 0
 s    3 1.00
  0.1301000000D+02  0.3349872639D-01
  0.1962000000D+01  0.2348008012D+00
  0.4446000000D+00  0.8136829579D+00
 s    1 1.00
  0.1220000000D+00  0.1000000000D+01
 s    1 1.00
  0.2974000000D-01  0.1000000000D+01
 p    1 1.00
  0.7270000000D+00  0.1000000000D+01
 p    1 1.00
  0.1410000000D+00  0.1000000000D+01

  3 0
 s    3 1.00
  0.1301000000D+02  0.3349872639D-01
  0.1962000000D+01  0.2348008012D+00
  0.4446000000D+00  0.8136829579D+00
 s    1 1.00
  0.1220000000D+00  0.1000000000D+01
 s    1 1.00
  0.2974000000D-01  0.1000000000D+01
 p    1 1.00
  0.7270000000D+00  0.1000000000D+01
 p    1 1.00
  0.1410000000D+00  0.1000000000D+01

  4 0
 s    3 1.00
  0.1301000000D+02  0.3349872639D-01
  0.1962000000D+01  0.2348008012D+00
  0.4446000000D+00  0.8136829579D+00
 s    1 1.00
  0.1220000000D+00  0.1000000000D+01
 s    1 1.00
  0.2974000000D-01  0.1000000000D+01
 p    1 1.00
  0.7270000000D+00  0.1000000000D+01
 p    1 1.00
  0.1410000000D+00  0.1000000000D+01


[MO]
 Ene=   -15.5449
 Spin= Alpha
 Occup=   2.000000
   1   1.002580
   2   0.004690
   3  -0.011970
   4  -0.005360
   5   0.001510
   6  -0.001410
   7  -0.000990
   8  -0.000340
   9   0.001010
  10   0.001390
  11  -0.000310
  12   0.000300
  13   0.000360
  14  -0.000530
  15  -0.000170
  16  -0.000040
  17   0.000410
  18   0.000040
  19  -0.000010
  20  -0.000140
  21   0.000200
  22  -0.000170
  23  -0.000240
  24  -0.000920
  25   0.005650
  26   0.000640
  27   0.001080
  28   0.000070
  29   0.000050
  30  -0.001700
  31   0.000130
  32  -0.000140
  33   0.000080
  34   0.003390
  35   0.000360
  36  -0.000210
  37  -0.000540
  38   0.000150
  39   0.000190
  40   0.001300
  41  -0.000400
  42   0.000580
  43   0.002460
  44   0.000320
  45  -0.000010
  46  -0.000010
  47  -0.000060
  48   0.000180
  49  -0.000100
  50   0.001070
 Ene=    -1.1810
 Spin= Alpha
 Occup=   2.000000
   1  -0.017740
   2   0.404630
   3   0.176620
   4  -0.013040
   5   0.105160
   6  -0.054460
   7  -0.017380
   8  -0.068040
   9   0.021050
  10  -0.018570
  11  -0.019470
  12  -0.002670
  13  -0.011910
  14  -0.008020
  15  -0.002570
  16   0.000450
  17   0.010360
  18  -0.002330
  19   0.023940
  20   0.006280
  21   0.002690
  22  -0.019130
  23  -0.001110
  24   0.330070
  25   0.147000
  26   0.018680
  27  -0.035570
  28  -0.002260
  29   0.000400
  30  -0.036430
  31  -0.005510
  32  -0.005070
  33   0.192660
  34  -0.000510
  35  -0.001600
  36   0.015940
  37   0.031810
  38  -0.009760
  39   0.001150
  40   0.000290
  41  -0.003850
  42   0.105230
  43  -0.055720
  44  -0.009510
  45   0.010930
  46  -0.006850
  47   0.022350
  48  -0.007770
  49   0.003070
  50  -0.022790
 Ene=    -0.6805
 Spin= Alpha
 Occup=   2.000000
   1   0.001390
   2  -0.037960
   3  -0.160850
   4  -0.058670
   5   0.446610
   6   0.190010
   7  -0.022830
   8   0.101370
   9   0.056870
  10   0.000610
  11  -0.019830
  12  -0.005540
  13   0.001140
  14  -0.008730
  15  -0.007580
  16   0.004650
  17   0.035810
  18  -0.013570
  19   0.011480
  20  -0.004840
  21  -0.012690
  22  -0.037510
  23   0.007940
  24   0.380020
  25   0.262990
  26   0.029250
  27  -0.015200
  28   0.011060
  29   0.001970
  30  -0.041270
  31  -0.009810
  32  -0.000580
  33  -0.312380
  34  -0.178210
  35  -0.013160
  36   0.004240
  37  -0.025020
  38   0.006530
  39  -0.018830
  40  -0.030290
  41   0.008060
  42  -0.089970
  43  -0.046740
  44  -0.002960
  45   0.008150
  46   0.006750
  47  -0.009530
  48  -0.006070
  49   0.000190
  50  -0.008260
 Ene=    -0.5873
 Spin= Alpha
 Occup=   2.000000
   1  -0.001410
   2   0.035060
   3   0.134150
   4   0.042330
   5  -0.141170
   6   0.287900
   7  -0.301240
   8  -0.062010
   9   0.133760
  10  -0.161310
  11  -0.003420
  12   0.009580
  13  -0.012400
  14   0.025370
  15   0.005880
  16   0.001310
  17   0.005950
  18   0.001530
  19  -0.007600
  20  -0.007370
  21  -0.000590
  22   0.001410
  23   0.010790
  24  -0.106030
  25  -0.049560
  26  -0.004800
  27   0.004620
  28   0.013110
  29  -0.015890
  30   0.003460
  31  -0.000180
  32   0.004870
  33  -0.246320
  34  -0.111600
  35  -0.003770
  36  -0.015060
  37  -0.017530
  38  -0.005140
  39  -0.007710
  40  -0.008080
  41   0.005550
  42   0.346100
  43   0.162310
  44   0.000550
  45   0.009510
  46   0.000880
  47   0.029920
  48   0.007520
  49  -0.005100
  50   0.010940
 Ene=    -0.4332
 Spin= Alpha
 Occup=   2.000000
   1   0.000920
   2   0.136560
   3   0.285140
   4   0.080670
   5  -0.167870
   6   0.363890
   7   0.362050
   8  -0.105070
   9   0.253950
  10   0.267120
  11  -0.014450
  12   0.046910
  13   0.053470
  14  -0.000870
  15   0.007000
  16  -0.010790
  17   0.004270
  18   0.009330
  19  -0.005830
  20   0.004580
  21  -0.015290
  22   0.007190
  23   0.004810
  24  -0.079420
  25  -0.039130
  26  -0.013330
  27   0.002820
  28   0.017900
  29   0.017610
  30   0.001480
  31   0.013580
  32   0.010610
  33  -0.096670
  34  -0.044430
  35  -0.004280
  36  -0.011760
  37   0.001250
  38   0.018050
  39  -0.009340
  40   0.007150
  41   0.010960
  42  -0.129420
  43  -0.065160
  44   0.001180
  45  -0.010710
  46   0.014120
  47  -0.005220
  48  -0.006810
  49   0.011130
  50   0.010320
 Ene=     0.0354
 Spin= Alpha
 Occup=   0.000000
   1  -0.010910
   2   0.049780
   3   0.421530
   4   2.141890
   5  -0.012980
   6  -0.021800
   7  -0.047950
   8   0.020590
   9  -0.078260
  10  -0.093280
  11   0.005770
  12  -0.127700
  13  -0.166750
  14  -0.002830
  15  -0.002610
  16   0.002080
  17   0.000970
  18  -0.001100
  19   0.006580
  20   0.012180
  21  -0.013540
  22   0.001420
  23   0.015290
  24  -0.003690
  25  -0.519290
  26  -0.704090
  27   0.000640
  28  -0.000670
  29  -0.002070
  30   0.092940
  31  -0.017820
  32  -0.011550
  33  -0.005360
  34  -0.402290
  35  -0.756210
  36  -0.000490
  37   0.002080
  38  -0.002000
  39  -0.009740
  40  -0.073000
  41   0.012430
  42  -0.016140
  43  -0.340700
  44  -0.766640
  45   0.000910
  46  -0.000840
  47   0.005710
  48  -0.012060
  49   0.007260
  50  -0.062390
 Ene=     0.0596
 Spin= Alpha
 Occup=   0.000000
   1   0.001710
   2   0.000520
   3  -0.067370
   4  -0.272010
   5  -0.040950
   6  -0.035580
   7   0.013190
   8  -0.132960
   9  -0.112670
  10   0.030010
  11  -0.855710
  12  -0.642800
  13   0.158820
  14   0.001480
  15  -0.000300
  16  -0.001180
  17  -0.004410
  18   0.000870
  19  -0.007600
  20   0.011230
  21   0.004750
  22  -0.016300
  23   0.002750
  24  -0.012580
  25   0.615410
  26   3.825920
  27   0.002200
  28  -0.002460
  29  -0.001260
  30  -0.147510
  31   0.070200
  32  -0.005080
  33   0.009270
  34  -0.450690
  35  -3.603080
  36  -0.001430
  37   0.004460
  38   0.001050
  39  -0.003930
  40  -0.137300
  41   0.037300
  42   0.000390
  43  -0.012800
  44  -0.080380
  45  -0.001370
  46  -0.001520
  47  -0.000370
  48   0.043570
  49   0.039060
  50  -0.013340
 Ene=     0.0596
 Spin= Alpha
 Occup=   0.000000
   1  -0.003230
   2  -0.004090
   3   0.100010
   4   0.459710
   5   0.029940
   6  -0.030680
   7   0.060580
   8   0.080870
   9  -0.074590
  10   0.140600
  11   0.482550
  12  -0.387320
  13   0.755040
  14  -0.000970
  15  -0.000110
  16   0.000050
  17   0.001610
  18   0.000260
  19  -0.024640
  20   0.006140
  21  -0.010190
  22  -0.005790
  23  -0.014040
  24   0.009050
  25  -0.361620
  26  -2.130760
  27  -0.001330
  28   0.000790
  29   0.002910
  30   0.084720
  31   0.029840
  32  -0.082650
  33   0.006340
  34  -0.182460
  35  -1.466680
  36   0.000690
  37   0.003040
  38   0.002870
  39  -0.054060
  40  -0.048570
  41  -0.038920
  42  -0.001790
  43   0.279590
  44   3.353740
  45  -0.000290
  46  -0.001480
  47  -0.007640
  48   0.022660
  49  -0.007540
  50   0.106380
 Ene=     0.1480
 Spin= Alpha
 Occup=   0.000000
   1  -0.016740
   2  -0.047600
   3   0.350760
   4   3.483450
   5  -0.041850
   6   0.113770
   7   0.127170
   8   0.034670
   9  -0.072180
  10  -0.034930
  11   0.785550
  12  -1.269210
  13  -1.028620
  14   0.000540
  15   0.006920
  16  -0.011750
  17   0.001280
  18   0.010010
  19  -0.009650
  20  -0.032320
  21   0.030810
  22  -0.009770
  23  -0.049970
  24  -0.044980
  25  -1.055510
  26  -0.800870
  27   0.030850
  28   0.006640
  29   0.006540
  30  -0.089560
  31   0.201940
  32   0.185170
  33  -0.011460
  34  -1.023330
  35  -0.446050
  36  -0.010430
  37  -0.028550
  38   0.009500
  39  -0.122610
  40   0.018070
  41   0.165840
  42   0.029830
  43  -0.814070
  44  -0.246380
  45  -0.004410
  46   0.000590
  47  -0.022560
  48  -0.115920
  49   0.139670
  50  -0.072240
 Ene=     0.1909
 Spin= Alpha
 Occup=   0.000000
   1  -0.041610
   2  -0.213570
   3   0.717910
   4   4.381310
   5   0.036660
   6  -0.015120
   7   0.044740
   8   0.305440
   9  -0.154570
  10   0.084520
  11   0.781550
  12  -0.057870
  13   0.885420
  14   0.002930
  15  -0.003310
  16   0.004390
  17  -0.001970
  18  -0.010500
  19  -0.044540
  20   0.037720
  21  -0.064570
  22   0.033650
  23   0.070890
  24  -0.077970
  25  -2.273960
  26  -1.945800
  27   0.026680
  28  -0.000660
  29   0.004060
  30   0.600280
  31  -0.172910
  32  -0.153980
  33  -0.006480
  34  -0.745090
  35  -0.576640
  36  -0.003740
  37  -0.020520
  38   0.012690
  39   0.032740
  40  -0.324260
  41  -0.011850
  42   0.112730
  43   0.439820
  44   0.355200
  45   0.001000
  46   0.001880
  47  -0.006250
  48   0.020320
  49  -0.021120
  50  -0.213610
 Ene=     0.2011
 Spin= Alpha
 Occup=   0.000000
   1   0.002570
   2   0.019310
   3   0.071040
   4  -0.411220
   5  -0.096240
   6  -0.070890
   7   0.003980
   8   0.379760
   9   0.349810
  10  -0.080860
  11   2.539440
  12   2.061020
  13  -0.606010
  14  -0.000940
  15   0.000570
  16  -0.003400
  17  -0.011670
  18   0.004940
  19   0.017990
  20  -0.007720
  21   0.048100
  22   0.135750
  23  -0.052260
  24  -0.114860
  25  -2.541720
  26  -3.615390
  27   0.008350
  28  -0.002090
  29   0.000530
  30   0.471650
  31  -0.109360
  32  -0.017770
  33   0.119360
  34   2.781050
  35   3.652660
  36   0.018160
  37   0.029320
  38  -0.012400
  39   0.155200
  40   0.592880
  41  -0.095560
  42  -0.020920
  43   0.093530
  44   0.125110
  45   0.007040
  46   0.006440
  47  -0.001260
  48   0.024110
  49  -0.025400
  50   0.091630
 Ene=     0.2035
 Spin= Alpha
 Occup=   0.000000
   1   0.014430
   2   0.078240
   3  -0.093860
   4  -1.670480
   5  -0.073060
   6   0.036120
   7  -0.116690
   8   0.119780
   9  -0.087140
  10   0.317790
  11   1.425730
  12  -1.159440
  13   2.361790
  14   0.018420
  15   0.005660
  16  -0.000620
  17   0.000370
  18   0.005470
  19  -0.162010
  20  -0.054730
  21   0.026830
  22  -0.015090
  23  -0.039930
  24  -0.052590
  25  -0.625170
  26  -1.552450
  27  -0.005420
  28   0.004930
  29  -0.006050
  30   0.009860
  31   0.115640
  32  -0.160400
  33  -0.056600
  34  -0.364620
  35  -0.905620
  36  -0.003820
  37  -0.001910
  38   0.003600
  39  -0.077930
  40   0.055280
  41  -0.095130
  42   0.064010
  43   2.225170
  44   3.174940
  45   0.023290
  46  -0.018580
  47   0.041370
  48   0.126600
  49  -0.027270
  50   0.560990
 Ene=     0.2599
 Spin= Alpha
 Occup=   0.000000
   1  -0.021450
   2  -0.033720
   3   0.526470
   4   2.719560
   5  -0.072850
   6   0.121490
   7  -0.241530
   8  -0.005520
   9   0.003140
  10  -0.145650
  11   0.163900
  12  -0.323870
  13   0.163780
  14  -0.013360
  15  -0.020530
  16   0.013020
  17  -0.001640
  18   0.010070
  19   0.023530
  20   0.056050
  21  -0.040020
  22  -0.001350
  23  -0.004800
  24  -0.020990
  25  -0.921090
  26  -0.866970
  27   0.014820
  28   0.006980
  29  -0.016800
  30   0.336370
  31   0.031010
  32  -0.289510
  33   0.020790
  34  -0.591080
  35  -1.040720
  36  -0.011920
  37  -0.015480
  38  -0.005270
  39  -0.180190
  40  -0.464810
  41  -0.089430
  42  -0.177160
  43  -1.149100
  44   1.092510
  45   0.001350
  46   0.001090
  47  -0.003580
  48   0.199020
  49  -0.092620
  50   0.495890
 Ene=     0.3085
 Spin= Alpha
 Occup=   0.000000
   1  -0.009960
   2   0.014090
   3   0.299530
   4   2.115430
   5  -0.136910
   6  -0.142130
   7   0.015480
   8  -0.172580
   9  -0.127130
  10   0.013870
  11   0.290260
  12   0.042850
  13  -0.124260
  14  -0.006480
  15   0.012120
  16   0.028530
  17   0.014290
  18  -0.009470
  19   0.040210
  20  -0.062920
  21  -0.128690
  22  -0.105170
  23   0.054380
  24   0.026480
  25  -0.209400
  26  -1.285650
  27   0.012610
  28  -0.006930
  29   0.005850
  30   0.426690
  31  -0.346370
  32   0.087400
  33  -0.127050
  34  -1.453650
  35   0.853590
  36  -0.003240
  37  -0.011360
  38  -0.006490
  39  -0.011320
  40   0.480350
  41  -0.415230
  42  -0.039250
  43  -0.701250
  44  -0.051680
  45  -0.007920
  46  -0.004330
  47  -0.005130
  48  -0.288150
  49  -0.386920
  50   0.013550
 Ene=     0.3428
 Spin= Alpha
 Occup=   0.000000
   1  -0.009240
   2   0.014240
   3   0.244740
   4   1.372380
   5  -0.063430
   6  -0.066270
   7   0.000110
   8  -0.110200
   9   0.035880
  10   0.079440
  11  -0.650530
  12  -0.471310
  13  -0.130960
  14   0.015740
  15  -0.040770
  16  -0.028960
  17  -0.008190
  18  -0.022700
  19  -0.085590
  20   0.271500
  21   0.185060
  22   0.020770
  23   0.152490
  24  -0.008660
  25  -1.224470
  26   0.288750
  27  -0.008810
  28  -0.014590
  29  -0.023310
  30   0.508330
  31  -0.445090
  32  -0.827690
  33  -0.032500
  34  -0.128620
  35  -0.304580
  36   0.005110
  37  -0.012430
  38   0.018560
  39   0.521590
  40   0.742370
  41   0.588920
  42  -0.016140
  43  -0.447750
  44  -0.220560
  45   0.010990
  46   0.009340
  47  -0.005600
  48   0.694020
  49   0.489410
  50  -0.044070
 Ene=     0.3450
 Spin= Alpha
 Occup=   0.000000
   1  -0.007010
   2  -0.014260
   3   0.155710
   4  -0.049980
   5  -0.023850
   6   0.019240
   7  -0.048350
   8  -0.085580
   9   0.116180
  10  -0.118020
  11  -0.133740
  12   0.167480
  13  -0.447700
  14  -0.008760
  15   0.030600
  16  -0.018170
  17  -0.007660
  18  -0.041390
  19   0.019440
  20  -0.238230
  21   0.107170
  22   0.047790
  23   0.325510
  24   0.007760
  25  -0.202850
  26   0.040900
  27  -0.006700
  28  -0.032280
  29   0.022590
  30   0.257220
  31  -0.834070
  32   0.618880
  33  -0.011790
  34  -0.634540
  35   0.120120
  36   0.029310
  37   0.000730
  38   0.002310
  39   0.619050
  40  -0.579000
  41   0.190660
  42   0.022850
  43   0.749110
  44  -0.139350
  45  -0.008330
  46   0.003370
  47  -0.003740
  48  -0.374810
  49   0.498770
  50   0.868270
 Ene=     0.3585
 Spin= Alpha
 Occup=   0.000000
   1   0.001650
   2   0.066970
   3  -0.020910
   4   2.529670
   5   0.074090
   6   0.019880
   7   0.013870
   8  -0.007610
   9   0.218360
  10   0.144530
  11   0.057560
  12   0.103150
  13  -0.105070
  14   0.010450
  15   0.002850
  16   0.025460
  17  -0.027250
  18  -0.019980
  19  -0.052230
  20  -0.040520
  21  -0.109610
  22   0.164460
  23   0.128080
  24  -0.067330
  25  -0.851140
  26   0.134600
  27   0.004050
  28  -0.017200
  29  -0.000890
  30  -1.139000
  31  -0.409990
  32   0.024040
  33  -0.026650
  34  -1.320580
  35  -0.220210
  36   0.009510
  37  -0.002210
  38  -0.005640
  39   0.520340
  40  -0.449840
  41  -0.449580
  42  -0.018840
  43  -0.880010
  44  -0.329080
  45  -0.004270
  46   0.000620
  47   0.002380
  48   0.177440
  49  -0.385930
  50  -0.202940
 Ene=     0.4722
 Spin= Alpha
 Occup=   0.000000
   1  -0.002790
   2   0.052690
   3   0.487240
   4   5.517750
   5   0.128080
   6  -0.186340
   7  -0.148060
   8   0.741710
   9  -0.848910
  10  -0.623290
  11   1.178960
  12  -1.233680
  13  -0.786700
  14  -0.014370
  15  -0.002340
  16  -0.008580
  17   0.011890
  18   0.003510
  19  -0.065780
  20  -0.066000
  21   0.077340
  22   0.018220
  23  -0.111370
  24  -0.041240
  25  -3.265620
  26  -0.952850
  27   0.041100
  28   0.013790
  29   0.003960
  30  -0.447990
  31   0.710890
  32   0.452610
  33  -0.028510
  34  -1.615600
  35  -0.323990
  36  -0.019310
  37  -0.018560
  38   0.006590
  39  -0.343780
  40   0.615000
  41   0.362150
  42  -0.049240
  43  -1.283110
  44  -0.086460
  45  -0.001020
  46  -0.003710
  47   0.000610
  48  -0.352830
  49   0.530910
  50   0.271150
 Ene=     0.5179
 Spin= Alpha
 Occup=   0.000000
   1   0.001730
   2  -0.001950
   3  -0.029160
   4  -0.042530
   5   0.030290
   6   0.055750
   7  -0.050960
   8   0.202030
   9   0.297910
  10  -0.244460
  11   0.531240
  12   1.128330
  13  -0.979460
  14   0.018230
  15  -0.006040
  16  -0.006480
  17   0.016500
  18  -0.008770
  19  -0.026490
  20   0.053900
  21   0.071070
  22   0.035860
  23   0.013880
  24  -0.002770
  25  -0.865540
  26  -0.501910
  27   0.002910
  28  -0.013180
  29   0.013630
  30   0.071250
  31   0.102250
  32  -0.567710
  33  -0.021330
  34   0.869490
  35   1.033600
  36  -0.005910
  37   0.016350
  38  -0.027050
  39   0.655880
  40   0.008030
  41   1.641510
  42   0.037560
  43   0.001960
  44  -0.499680
  45   0.017760
  46   0.031770
  47  -0.013240
  48  -0.812180
  49  -1.354110
  50   0.448990
 Ene=     0.5338
 Spin= Alpha
 Occup=   0.000000
   1   0.008780
   2  -0.018750
   3  -0.409090
   4  -0.531370
   5  -0.059180
   6  -0.010190
   7  -0.074590
   8  -0.269110
   9  -0.169540
  10  -0.548200
  11  -1.500410
  12   0.292000
  13  -1.608930
  14   0.033550
  15   0.033480
  16  -0.007310
  17  -0.009090
  18  -0.004300
  19  -0.008940
  20  -0.188460
  21   0.025830
  22  -0.046830
  23   0.040370
  24  -0.029800
  25   0.106210
  26   1.363390
  27  -0.014690
  28  -0.000760
  29  -0.003310
  30   0.563840
  31  -0.152680
  32   2.379530
  33  -0.029010
  34  -0.843260
  35   0.033230
  36   0.010190
  37   0.001650
  38  -0.002320
  39   0.204140
  40  -0.289580
  41   0.821510
  42   0.122240
  43   1.151060
  44  -1.124650
  45  -0.040250
  46   0.017450
  47  -0.018460
  48   1.580960
  49  -0.700830
  50   0.957060
 Ene=     0.5460
 Spin= Alpha
 Occup=   0.000000
   1  -0.000690
   2  -0.008440
   3  -0.193410
   4  -0.177580
   5  -0.102370
   6  -0.089720
   7   0.006980
   8  -0.683750
   9  -0.736420
  10   0.036860
  11  -1.900520
  12  -1.552200
  13   0.373190
  14  -0.004360
  15  -0.002490
  16  -0.008470
  17  -0.049440
  18   0.028190
  19   0.030520
  20   0.016390
  21  -0.031750
  22  -0.060130
  23  -0.104080
  24  -0.019290
  25   0.848910
  26   1.828610
  27  -0.023120
  28  -0.004860
  29   0.003600
  30   0.407070
  31   2.358310
  32  -0.461810
  33   0.049900
  34  -0.088260
  35  -1.673550
  36  -0.043250
  37  -0.030990
  38   0.012370
  39   1.819790
  40   0.080700
  41  -0.315590
  42  -0.021540
  43  -0.595940
  44  -0.067520
  45   0.014050
  46   0.004950
  47  -0.001860
  48  -0.034270
  49   0.264760
  50  -0.282660
 Ene=     0.5901
 Spin= Alpha
 Occup=   0.000000
   1   0.088260
   2  -0.010830
   3  -2.701670
   4  -2.557400
   5   0.101170
   6  -0.035050
   7   0.210010
   8   0.867550
   9  -0.166980
  10   1.397370
  11   0.680340
  12  -0.253090
  13   0.861200
  14   0.001120
  15   0.009750
  16  -0.005210
  17   0.003860
  18  -0.010080
  19  -0.013670
  20   0.023250
  21  -0.000540
  22   0.028350
  23  -0.020940
  24  -0.010500
  25  -1.897080
  26  -0.403040
  27  -0.002540
  28   0.001340
  29  -0.009360
  30   0.431490
  31   0.253090
  32  -0.185180
  33   0.016330
  34   1.184730
  35   0.026400
  36  -0.005430
  37   0.008500
  38  -0.003950
  39   0.279810
  40   0.612940
  41  -0.184790
  42   0.256310
  43   4.463900
  44   1.292960
  45   0.000370
  46  -0.002790
  47  -0.007930
  48   0.800620
  49  -0.335550
  50   2.751710
 Ene=     0.6287
 Spin= Alpha
 Occup=   0.000000
   1   0.011310
   2   0.004340
   3  -1.140550
   4  -0.030210
   5  -0.038070
   6  -0.095830
   7   0.040290
   8  -1.870370
   9  -1.636610
  10   0.476280
  11  -1.027520
  12  -0.952030
  13   0.127960
  14   0.009650
  15   0.000840
  16  -0.004100
  17  -0.046260
  18  -0.002910
  19   0.018540
  20   0.013330
  21  -0.137420
  22  -0.343190
  23   0.167410
  24   0.029670
  25  12.977900
  26   1.092410
  27  -0.019760
  28   0.042780
  29   0.007080
  30  -5.032540
  31  -1.452510
  32  -0.178200
  33  -0.023690
  34 -11.593210
  35  -1.105160
  36   0.015080
  37  -0.056110
  38   0.005950
  39  -2.865010
  40  -3.955170
  41   1.513190
  42   0.088650
  43  -0.839830
  44   0.082810
  45   0.024590
  46   0.018470
  47  -0.016290
  48  -0.994980
  49  -0.422350
  50   0.148110
 Ene=     0.6418
 Spin= Alpha
 Occup=   0.000000
   1   0.106330
   2   0.034320
   3  -4.465510
   4  -3.118090
   5  -0.014510
   6   0.104400
   7  -0.135050
   8  -0.737040
   9   1.110340
  10  -1.469840
  11  -0.430090
  12   0.460420
  13  -0.906270
  14   0.021200
  15  -0.016440
  16   0.016100
  17  -0.014260
  18   0.004380
  19   0.256060
  20   0.126360
  21  -0.058530
  22  -0.043340
  23  -0.035840
  24   0.035150
  25   6.976420
  26   0.844840
  27  -0.025290
  28  -0.003760
  29   0.027650
  30  -2.981930
  31   0.166860
  32  -0.527580
  33   0.138790
  34   4.447860
  35   0.864700
  36   0.023530
  37   0.017230
  38   0.008260
  39   0.142450
  40   2.431430
  41  -0.916550
  42  -0.032880
  43  -5.794100
  44  -0.745570
  45   0.003480
  46  -0.006060
  47  -0.029130
  48  -1.372150
  49   0.978000
  50  -2.430390
 Ene=     0.6978
 Spin= Alpha
 Occup=   0.000000
   1   0.038410
   2   0.013980
   3  -0.872940
   4  -1.444550
   5  -0.014160
   6   0.128790
   7  -0.118920
   8   0.283980
   9  -0.324670
  10   0.789650
  11   0.180800
  12  -0.320710
  13   0.743560
  14  -0.018130
  15  -0.004690
  16  -0.003090
  17  -0.011250
  18   0.006380
  19  -0.998230
  20  -0.488490
  21  -0.009490
  22  -0.322790
  23   0.354370
  24   0.004450
  25  -0.529030
  26   0.018200
  27  -0.011350
  28   0.025870
  29  -0.042120
  30   0.133330
  31  -0.613420
  32   0.874040
  33   0.185120
  34  -2.600500
  35   0.035140
  36  -0.029000
  37  -0.064200
  38  -0.017780
  39  -0.139970
  40  -0.323430
  41   0.778560
  42  -0.382960
  43   5.315070
  44   0.303400
  45   0.042410
  46  -0.002370
  47   0.133450
  48   0.753960
  49  -0.866010
  50   1.514530
 Ene=     0.7644
 Spin= Alpha
 Occup=   0.000000
   1   0.051350
   2   0.037680
   3  -2.057750
   4  -2.638070
   5  -0.211440
   6  -0.140990
   7  -0.033050
   8  -0.610960
   9  -0.430640
  10   0.164470
  11  -0.085940
  12  -0.006850
  13   0.139920
  14   0.007780
  15   0.003670
  16   0.012760
  17  -0.002490
  18  -0.007650
  19  -0.389440
  20  -0.125150
  21   0.513080
  22   0.891270
  23  -0.348720
  24   0.157580
  25   3.657590
  26   0.672410
  27  -0.030110
  28  -0.015330
  29  -0.015060
  30  -2.072850
  31   0.430550
  32   0.266520
  33  -0.267850
  34  -0.585200
  35  -0.133540
  36   0.007420
  37   0.073880
  38  -0.021500
  39  -0.144430
  40  -0.999220
  41   0.480380
  42  -0.204720
  43   1.245210
  44   0.074780
  45   0.006190
  46  -0.021840
  47   0.058870
  48   0.156500
  49   0.083810
  50   0.155640
 Ene=     0.8627
 Spin= Alpha
 Occup=   0.000000
   1   0.010710
   2   0.026220
   3   0.368570
   4  -2.538240
   5   0.099410
   6  -0.052900
   7  -0.044930
   8   0.665870
   9  -0.184240
  10   0.030860
  11   0.170530
  12  -0.054420
  13  -0.015310
  14  -0.005780
  15   0.004060
  16  -0.011510
  17   0.012500
  18  -0.004010
  19   0.261320
  20  -0.578250
  21   0.892510
  22  -0.774670
  23  -0.691840
  24  -0.147010
  25  -2.240350
  26   0.087680
  27  -0.000590
  28   0.024450
  29   0.010330
  30   1.957660
  31   0.714220
  32   0.708750
  33  -0.087990
  34   2.329820
  35   0.222990
  36  -0.002630
  37   0.019600
  38  -0.006740
  39  -0.034000
  40   0.606230
  41   0.372680
  42  -0.128140
  43   2.809940
  44   0.184580
  45   0.013770
  46  -0.011950
  47   0.026250
  48   0.204810
  49   0.125500
  50   0.962850
 Ene=     0.9159
 Spin= Alpha
 Occup=   0.000000
   1   0.006940
   2   0.038210
   3   0.507200
   4   0.015790
   5   0.003410
   6   0.055670
   7   0.000640
   8   0.159410
   9  -0.001770
  10   0.201850
  11  -0.363890
  12   0.083830
  13  -0.260580
  14  -0.013360
  15  -0.005330
  16  -0.013780
  17  -0.002270
  18  -0.003890
  19   0.195110
  20   0.129530
  21   1.008780
  22   0.135000
  23   1.358120
  24  -0.027610
  25  -1.990490
  26   0.278540
  27   0.000040
  28  -0.010490
  29  -0.003380
  30   1.022460
  31  -0.978720
  32   0.154050
  33  -0.005040
  34  -0.438920
  35   0.006970
  36  -0.002100
  37  -0.012680
  38  -0.001900
  39   0.740550
  40  -0.237270
  41   0.833300
  42  -0.159550
  43   2.161160
  44  -0.300640
  45   0.011920
  46  -0.029300
  47   0.019290
  48   0.438470
  49   0.433640
  50   1.149340
 Ene=     0.9215
 Spin= Alpha
 Occup=   0.000000
   1  -0.006170
   2  -0.013990
   3   0.020000
   4   0.189460
   5   0.038340
   6   0.001000
   7   0.030280
   8   0.063440
   9   0.152430
  10  -0.131100
  11  -0.184680
  12  -0.351680
  13   0.204420
  14   0.015260
  15  -0.004860
  16  -0.007190
  17   0.004330
  18  -0.000880
  19  -0.567150
  20   1.484980
  21   0.487000
  22  -0.350560
  23  -0.425850
  24   0.012680
  25  -1.087310
  26   0.138960
  27  -0.000750
  28   0.010210
  29  -0.010880
  30   0.520850
  31   0.614450
  32  -1.351570
  33  -0.033960
  34   2.399380
  35  -0.339870
  36   0.006790
  37   0.003470
  38  -0.000200
  39   0.137030
  40   1.379800
  41   0.255060
  42   0.124450
  43  -1.583620
  44   0.163980
  45  -0.031910
  46   0.001760
  47  -0.018530
  48   0.421550
  49   0.387380
  50  -0.891630
 Ene=     1.0925
 Spin= Alpha
 Occup=   0.000000
   1   0.130590
   2   0.371890
   3  -0.754370
   4  -1.829130
   5  -0.296170
   6   0.092810
   7  -0.218670
   8   0.964170
   9  -0.147740
  10   0.794870
  11   0.132620
  12   0.324340
  13   0.626110
  14  -0.053080
  15  -0.031240
  16   0.062830
  17   0.033700
  18  -0.039560
  19   0.445760
  20   0.541240
  21  -0.505870
  22  -0.174260
  23  -0.167680
  24  -0.396900
  25  -0.285880
  26   0.073190
  27  -0.022350
  28  -0.001780
  29  -0.099260
  30   0.375710
  31   0.092390
  32  -0.604820
  33  -0.506700
  34   1.652530
  35   0.093960
  36   0.018780
  37   0.135260
  38  -0.103790
  39  -0.244350
  40   0.282130
  41  -0.381240
  42  -1.036320
  43   2.089390
  44   0.102890
  45   0.069730
  46  -0.056120
  47   0.229550
  48   0.031700
  49  -0.096020
  50   0.465030
 Ene=     1.2111
 Spin= Alpha
 Occup=   0.000000
   1   0.063750
   2   0.180540
   3  -0.761510
   4  -1.020080
   5  -0.151590
   6  -0.464170
   7   0.386780
   8   0.646860
   9   1.626630
  10  -1.178310
  11   0.165360
  12   0.647140
  13  -0.239270
  14   0.116630
  15   0.020640
  16   0.072100
  17   0.133690
  18  -0.074120
  19  -0.415740
  20  -0.384000
  21  -0.170860
  22  -0.404690
  23   0.601060
  24  -0.159220
  25  -1.190260
  26  -0.032670
  27  -0.002500
  28  -0.168710
  29   0.113300
  30   0.522600
  31  -0.543420
  32   0.341770
  33  -0.668750
  34   3.989060
  35   0.256410
  36   0.164040
  37   0.462080
  38  -0.068080
  39   0.415510
  40   1.228600
  41  -0.143210
  42   0.239380
  43  -0.914140
  44  -0.036650
  45  -0.040610
  46  -0.051820
  47  -0.124830
  48  -0.203830
  49  -0.074620
  50  -0.464750
 Ene=     1.3398
 Spin= Alpha
 Occup=   0.000000
   1   0.027880
   2   0.116970
   3  -2.117060
   4  -3.623420
   5   0.612250
   6  -0.372870
   7  -0.324690
   8  -2.290490
   9   0.885760
  10   0.786380
  11  -0.847560
  12   0.392780
  13   0.388680
  14   0.094250
  15   0.013020
  16   0.016550
  17  -0.137380
  18   0.010030
  19  -0.022200
  20   0.222440
  21  -0.268190
  22   0.301790
  23   0.319460
  24   0.055470
  25   5.687630
  26   0.637830
  27  -0.553800
  28  -0.043060
  29  -0.035070
  30  -1.013910
  31  -0.468850
  32  -0.368430
  33  -0.106720
  34  -0.340100
  35   0.096770
  36   0.117490
  37   0.050630
  38  -0.044300
  39   0.142750
  40  -0.773060
  41  -0.193510
  42  -0.213400
  43   0.152100
  44   0.074760
  45   0.047450
  46  -0.005440
  47   0.042100
  48   0.113820
  49  -0.220720
  50  -0.439530
 Ene=     1.3965
 Spin= Alpha
 Occup=   0.000000
   1   0.037460
   2   0.222730
   3  -1.118980
   4   0.703930
   5   0.123410
   6   0.568350
   7   0.580900
   8  -0.828330
   9  -1.718800
  10  -1.536770
  11  -0.420150
  12  -0.408080
  13  -0.328670
  14   0.095240
  15  -0.019290
  16   0.014370
  17  -0.157300
  18  -0.015430
  19  -0.339130
  20  -0.207580
  21   0.080690
  22   0.381990
  23  -0.163220
  24  -0.513670
  25   4.463750
  26   0.238490
  27  -0.456060