[Molden Format]
[Title]

[Atoms] AU
 n     1    7 -.14088313098110E-01 0.84590392415560E-01 0.10377115122988E+00
 h     2    1 0.14952113827979E+01 0.21418737519330E-01 0.44560362308180E-01
 h     3    1 -.59194577754708E+00 -.16621666201605E+01 0.53503122119411E+00
 h     4    1 -.70751764838210E+00 0.46541934107147E+00 -.20214243064440E+01
[GTO]
    1 0
 s    8 1.00
 0.90460000000000E+04 0.69961741342552E-03
 0.13570000000000E+04 0.53860546299287E-02
 0.30930000000000E+03 0.27391021189057E-01
 0.87730000000000E+02 0.10315059198201E+00
 0.28560000000000E+02 0.27857066331743E+00
 0.10210000000000E+02 0.44829484945412E+00
 0.38380000000000E+01 0.27808592839527E+00
 0.74660000000000E+00 0.15431561233271E-01
 s    8 1.00
 0.90460000000000E+04 -.30499009595337E-03
 0.13570000000000E+04 -.24080263785077E-02
 0.30930000000000E+03 -.11944448725180E-01
 0.87730000000000E+02 -.48925992909017E-01
 0.28560000000000E+02 -.13447272472496E+00
 0.10210000000000E+02 -.31511257770011E+00
 0.38380000000000E+01 -.24285783254964E+00
 0.74660000000000E+00 0.10943822068542E+01
 s    1 1.00
 0.22480000000000E+00 0.10000000000000E+01
 s    1 1.00
 0.61240000000000E-01 0.10000000000000E+01
 p    3 1.00
 0.13550000000000E+02 0.58905676772132E-01
 0.29170000000000E+01 0.32046110671427E+00
 0.79730000000000E+00 0.75304206179207E+00
 p    1 1.00
 0.21850000000000E+00 0.10000000000000E+01
 p    1 1.00
 0.56110000000000E-01 0.10000000000000E+01
 d    1 1.00
 0.81700000000000E+00 0.10000000000000E+01
 d    1 1.00
 0.23000000000000E+00 0.10000000000000E+01

    2 0
 s    3 1.00
 0.13010000000000E+02 0.33498726389998E-01
 0.19620000000000E+01 0.23480080117413E+00
 0.44460000000000E+00 0.81368295788290E+00
 s    1 1.00
 0.12200000000000E+00 0.10000000000000E+01
 s    1 1.00
 0.29740000000000E-01 0.10000000000000E+01
 p    1 1.00
 0.72700000000000E+00 0.10000000000000E+01
 p    1 1.00
 0.14100000000000E+00 0.10000000000000E+01

    3 0
 s    3 1.00
 0.13010000000000E+02 0.33498726389998E-01
 0.19620000000000E+01 0.23480080117413E+00
 0.44460000000000E+00 0.81368295788290E+00
 s    1 1.00
 0.12200000000000E+00 0.10000000000000E+01
 s    1 1.00
 0.29740000000000E-01 0.10000000000000E+01
 p    1 1.00
 0.72700000000000E+00 0.10000000000000E+01
 p    1 1.00
 0.14100000000000E+00 0.10000000000000E+01

    4 0
 s    3 1.00
 0.13010000000000E+02 0.33498726389998E-01
 0.19620000000000E+01 0.23480080117413E+00
 0.44460000000000E+00 0.81368295788290E+00
 s    1 1.00
 0.12200000000000E+00 0.10000000000000E+01
 s    1 1.00
 0.29740000000000E-01 0.10000000000000E+01
 p    1 1.00
 0.72700000000000E+00 0.10000000000000E+01
 p    1 1.00
 0.14100000000000E+00 0.10000000000000E+01

[MO]
 Sym=     1a
 Ene= -.15544945274137E+02
 Spin= Alpha
 Occup= 2.000000
     1 0.10025830386615E+01
     2 0.46946334339764E-02
     3 -.11975526656173E-01
     4 -.53633938475139E-02
     5 0.15124702704608E-02
     6 -.14081491026553E-02
     7 -.98898301415392E-03
     8 -.34191364818321E-03
     9 0.10140338565435E-02
    10 0.13887178239171E-02
    11 -.31450317928750E-03
    12 0.30024867072547E-03
    13 0.36408935264726E-03
    14 0.35819760942322E-03
    15 -.54017369486790E-04
    16 -.30418023993643E-03
    17 0.21955989635844E-04
    18 -.10093334979319E-03
    19 -.25624805568695E-04
    20 -.83122587693369E-04
    21 0.88464958842361E-04
    22 -.53423711489916E-05
    23 -.13842133211072E-03
    24 -.78172618756760E-04
    25 0.11676062071992E-03
    26 -.92235841198937E-03
    27 0.56503432333592E-02
    28 0.64461213001658E-03
    29 0.10803071063397E-02
    30 0.73446636951034E-04
    31 0.54917221528415E-04
    32 -.16988524320145E-02
    33 0.12889977954046E-03
    34 -.14450810578528E-03
    35 0.83017699694500E-04
    36 0.33851126069211E-02
    37 0.35634894477837E-03
    38 -.21211488697810E-03
    39 -.54126497755139E-03
    40 0.14575982051192E-03
    41 0.18974407547047E-03
    42 0.13024540204054E-02
    43 -.40302467752013E-03
    44 0.58444367527611E-03
    45 0.24631538022094E-02
    46 0.31684089954009E-03
    47 -.13471012601144E-04
    48 -.11575428494439E-04
    49 -.65001044285536E-04
    50 0.18130738949529E-03
    51 -.10426153292174E-03
    52 0.10693919874793E-02
 Sym=     2a
 Ene= -.11810199134748E+01
 Spin= Alpha
 Occup= 2.000000
     1 -.17736088105988E-01
     2 0.40463356202175E+00
     3 0.17662524308001E+00
     4 -.13032844930465E-01
     5 0.10516671978374E+00
     6 -.54459081820663E-01
     7 -.17388795506413E-01
     8 -.68039778970992E-01
     9 0.21051690592814E-01
    10 -.18569098534197E-01
    11 -.19473918837351E-01
    12 -.26691969418175E-02
    13 -.11912995845612E-01
    14 0.74949861888616E-02
    15 -.28622476412414E-02
    16 -.46327385476202E-02
    17 -.13464282685939E-02
    18 -.14861162162662E-02
    19 0.25773484080741E-03
    20 -.16474005614299E-01
    21 0.26516618099731E-02
    22 0.13822343804326E-01
    23 -.63922869325072E-03
    24 0.36234119876799E-02
    25 0.15516718525309E-02
    26 0.33007178778132E+00
    27 0.14700316867675E+00
    28 0.18675309111508E-01
    29 -.35572972922606E-01
    30 -.22572714046866E-02
    31 0.40339337655395E-03
    32 -.36431783680414E-01
    33 -.55129307987201E-02
    34 -.50702428541657E-02
    35 0.19265693549429E+00
    36 -.50767866396291E-03
    37 -.16045250022691E-02
    38 0.15944282658423E-01
    39 0.31809911267111E-01
    40 -.97583871306321E-02
    41 0.11545524529140E-02
    42 0.29118724747894E-03
    43 -.38479073131718E-02
    44 0.10522913289158E+00
    45 -.55723274947071E-01
    46 -.95095189305468E-02
    47 0.10932575208017E-01
    48 -.68499140097035E-02
    49 0.22353815284361E-01
    50 -.77684827191599E-02
    51 0.30671957085210E-02
    52 -.22790447902572E-01
 Sym=     3a
 Ene= -.68050039930247E+00
 Spin= Alpha
 Occup= 2.000000
     1 0.13947325302132E-02
     2 -.37953076861815E-01
     3 -.16084491983526E+00
     4 -.58664496338043E-01
     5 0.44660824336742E+00
     6 0.19001864543007E+00
     7 -.22832256248002E-01
     8 0.10136562673116E+00
     9 0.56876386781830E-01
    10 0.61285443677042E-03
    11 -.19829178679792E-01
    12 -.55435862618238E-02
    13 0.11396045423873E-02
    14 0.20427060740551E-01
    15 -.15385494465965E-01
    16 -.50415662745859E-02
    17 -.78323047029038E-02
    18 -.43793468386877E-02
    19 0.26831450546321E-02
    20 -.22066423119989E-01
    21 0.15439517871914E-01
    22 0.66269052480757E-02
    23 0.45853780027900E-02
    24 -.27925720089728E-02
    25 -.73291201206574E-02
    26 0.38002012562262E+00
    27 0.26298079830919E+00
    28 0.29251715589127E-01
    29 -.15199633357493E-01
    30 0.11062546552998E-01
    31 0.19658011899842E-02
    32 -.41271727348547E-01
    33 -.98158374686168E-02
    34 -.58387585221429E-03
    35 -.31238787784038E+00
    36 -.17820660625809E+00
    37 -.13157207577310E-01
    38 0.42407749131913E-02
    39 -.25015931097815E-01
    40 0.65305102651225E-02
    41 -.18834319390825E-01
    42 -.30285420938987E-01
    43 0.80601422713003E-02
    44 -.89968121255196E-01
    45 -.46738874658623E-01
    46 -.29594224166209E-02
    47 0.81469219753535E-02
    48 0.67480182852578E-02
    49 -.95262963179916E-02
    50 -.60734816860234E-02
    51 0.18975412387760E-03
    52 -.82598661607111E-02
 Sym=     4a
 Ene= -.58733327526914E+00
 Spin= Alpha
 Occup= 2.000000
     1 0.14119480007240E-02
     2 -.35042404475105E-01
     3 -.13412212931451E+00
     4 -.42327688577175E-01
     5 0.14115882858400E+00
     6 -.28786894666589E+00
     7 0.30126099975493E+00
     8 0.62006474525270E-01
     9 -.13373958428880E+00
    10 0.16132526562918E+00
    11 0.34162338967726E-02
    12 -.95815816910934E-02
    13 0.12401490409114E-01
    14 0.43505330684138E-02
    15 0.10298686212564E-01
    16 -.14649219280978E-01
    17 -.88115293235658E-03
    18 -.33952867028725E-02
    19 -.75412824961029E-03
    20 -.28956967009620E-02
    21 -.14883269642183E-02
    22 0.43840236651803E-02
    23 -.62259573267802E-02
    24 0.42562249905404E-02
    25 0.34160188817082E-03
    26 0.10602740394856E+00
    27 0.49561577478989E-01
    28 0.47954378661144E-02
    29 -.46213097001535E-02
    30 -.13104808394287E-01
    31 0.15895564759850E-01
    32 -.34583454637557E-02
    33 0.18222274004650E-03
    34 -.48676105852863E-02
    35 0.24631683064231E+00
    36 0.11160046938946E+00
    37 0.37703713591878E-02
    38 0.15061828622467E-01
    39 0.17533374258891E-01
    40 0.51424600921877E-02
    41 0.77095400145604E-02
    42 0.80805458053313E-02
    43 -.55510461921455E-02
    44 -.34612043179581E+00
    45 -.16233177512678E+00
    46 -.55535722636129E-03
    47 -.95113203064311E-02
    48 -.88389010383558E-03
    49 -.29919475635894E-01
    50 -.75174471301558E-02
    51 0.51023292371290E-02
    52 -.10937578654755E-01
 Sym=     5a
 Ene= -.43315870607021E+00
 Spin= Alpha
 Occup= 2.000000
     1 0.91649981720732E-03
     2 0.13654814628825E+00
     3 0.28512563787140E+00
     4 0.80696076245330E-01
     5 -.16787519929115E+00
     6 0.36389817070611E+00
     7 0.36206111279828E+00
     8 -.10506671690715E+00
     9 0.25395422032604E+00
    10 0.26712294261985E+00
    11 -.14448956617893E-01
    12 0.46912963484510E-01
    13 0.53479648051637E-01
    14 0.23841473996985E-02
    15 -.18825636247789E-02
    16 -.50158377491961E-03
    17 0.53842810435037E-02
    18 0.40443957741667E-02
    19 -.62299306036044E-02
    20 0.52771046490060E-02
    21 -.19135160735167E-02
    22 -.33635885754894E-02
    23 0.27771261784292E-02
    24 0.26443610471761E-02
    25 -.88285408661264E-02
    26 -.79433495461467E-01
    27 -.39145727693118E-01
    28 -.13336664132449E-01
    29 0.28181680900555E-02
    30 0.17904152091314E-01
    31 0.17605615312747E-01
    32 0.14807615958050E-02
    33 0.13581884246670E-01
    34 0.10611997452666E-01
    35 -.96678490296431E-01
    36 -.44443109504261E-01
    37 -.42854793331703E-02
    38 -.11758228833171E-01
    39 0.12505957402175E-02
    40 0.18053123496149E-01
    41 -.93401455833885E-02
    42 0.71480615491073E-02
    43 0.10964497215879E-01
    44 -.12937443821846E+00
    45 -.65098505608000E-01
    46 0.11914804325030E-02
    47 -.10714302451767E-01
    48 0.14121329150547E-01
    49 -.52188569995492E-02
    50 -.68081568220054E-02
    51 0.11124494748536E-01
    52 0.10317238303277E-01
 Sym=     6a
 Ene= 0.35419323876201E-01
 Spin= Alpha
 Occup= 0.000000
     1 0.10906962391270E-01
     2 -.49789188375899E-01
     3 -.42153122310470E+00
     4 -.21418239481497E+01
     5 0.12985495823231E-01
     6 0.21795440904533E-01
     7 0.47941375249922E-01
     8 -.20589065173108E-01
     9 0.78250378545598E-01
    10 0.93270870812812E-01
    11 -.57539733026250E-02
    12 0.12767256050996E+00
    13 0.16672982883809E+00
    14 -.13028295649564E-02
    15 -.32859361976651E-03
    16 0.16314231847229E-02
    17 0.63679930551901E-03
    18 0.15062732491156E-02
    19 -.11991511539080E-02
    20 0.11928046968904E-02
    21 0.26091805948287E-02
    22 -.38019852917190E-02
    23 -.88271789970110E-02
    24 -.70324301718826E-02
    25 0.78176931685860E-02
    26 0.36979726978103E-02
    27 0.51927865685660E+00
    28 0.70406034178042E+00
    29 -.63599073733375E-03
    30 0.66904632472254E-03
    31 0.20702330011655E-02
    32 -.92946992219966E-01
    33 0.17826219733626E-01
    34 0.11550337317246E-01
    35 0.53595591526464E-02
    36 0.40227342538830E+00
    37 0.75619000601093E+00
    38 0.48985098727431E-03
    39 -.20849919679480E-02
    40 0.19963586736938E-02
    41 0.97351760092139E-02
    42 0.73003928236813E-01
    43 -.12423565067346E-01
    44 0.16142469577230E-01
    45 0.34068557664918E+00
    46 0.76666794150275E+00
    47 -.90716217602407E-03
    48 0.83601416425456E-03
    49 -.57071160141325E-02
    50 0.12054561155886E-01
    51 -.72623624036273E-02
    52 0.62391277812610E-01
 Sym=     7a
 Ene= 0.59578168193321E-01
 Spin= Alpha
 Occup= 0.000000
     1 -.17217628374966E-02
     2 -.52863160136336E-03
     3 0.67602356190586E-01
     4 0.27308970134664E+00
     5 0.41018475412138E-01
     6 0.35504080999737E-01
     7 -.13045742395785E-01
     8 0.13314876629905E+00
     9 0.11249703686173E+00
    10 -.29683144652047E-01
    11 0.85683314365279E+00
    12 0.64188967474469E+00
    13 -.15704480535931E+00
    14 0.26342515803242E-02
    15 -.17806032110613E-02
    16 -.85364836926292E-03
    17 -.50434997651885E-03
    18 0.17362713510565E-03
    19 0.68083131488775E-03
    20 0.59661077660146E-02
    21 -.10320629590413E-01
    22 0.43545218243988E-02
    23 -.16064183529987E-02
    24 -.64749525770866E-02
    25 -.27560194594203E-02
    26 0.12598659053065E-01
    27 -.61625399309421E+00
    28 -.38309049911085E+01
    29 -.22013758563533E-02
    30 0.24645178083464E-02
    31 0.12667266955087E-02
    32 0.14770425143733E+00
    33 -.70129036919593E-01
    34 0.48862133571066E-02
    35 -.92521186741007E-02
    36 0.45026307053186E+00
    37 0.35996252905502E+01
    38 0.14298053975046E-02
    39 -.44569126947102E-02
    40 -.10478387736265E-02
    41 0.38026176909653E-02
    42 0.13718571461658E+00
    43 -.37396709319020E-01
    44 -.39475584527369E-03
    45 0.13458746029826E-01
    46 0.88247596326787E-01
    47 0.13667557640905E-02
    48 0.15162291740893E-02
    49 0.34910680650789E-03
    50 -.43522437056965E-01
    51 -.39077351064483E-01
    52 0.13589054138146E-01
 Sym=     8a
 Ene= 0.59641769352556E-01
 Spin= Alpha
 Occup= 0.000000
     1 -.32285678173052E-02
     2 -.40911667792988E-02
     3 0.99852999527819E-01
     4 0.45909499511910E+00
     5 0.29842626826868E-01
     6 -.30765081990348E-01
     7 0.60606142192002E-01
     8 0.80560712544037E-01
     9 -.74860808212884E-01
    10 0.14066316396221E+00
    11 0.48054669652590E+00
    12 -.38883695624180E+00
    13 0.75541348136790E+00
    14 0.10777022615454E-02
    15 -.51865005935998E-03
    16 -.55905220218543E-03
    17 0.15374163036347E-03
    18 -.63051001195308E-04
    19 0.24763104032139E-04
    20 0.42049966555834E-02
    21 0.10033099438048E-01
    22 -.14238096093632E-01
    23 -.81002889373671E-02
    24 0.35574038474132E-02
    25 -.58796906750647E-02
    26 0.90183016716861E-02
    27 -.36018160690466E+00
    28 -.21217794767829E+01
    29 -.13205181918266E-02
    30 0.78459988812539E-03
    31 0.29093664647250E-02
    32 0.84370253819733E-01
    33 0.30008781901030E-01
    34 -.82660678642135E-01
    35 0.63654455147880E-02
    36 -.18352545396375E+00
    37 -.14751501504561E+01
    38 0.68495596576775E-03
    39 0.30549664228372E-02
    40 0.28684135581806E-02
    41 -.54074975467483E-01
    42 -.48897812351685E-01
    43 -.38828725143944E-01
    44 -.17867457824133E-02
    45 0.27955736985135E+00
    46 0.33535425341216E+01
    47 -.29319694599763E-03
    48 -.14794462789056E-02
    49 -.76428108295654E-02
    50 0.22767998205298E-01
    51 -.74522618967393E-02
    52 0.10634638738176E+00
 Sym=     9a
 Ene= 0.14798365355528E+00
 Spin= Alpha
 Occup= 0.000000
     1 0.16743101075631E-01
     2 0.47611012998824E-01
     3 -.35080956810818E+00
     4 -.34838029665111E+01
     5 0.41837664472867E-01
     6 -.11376474179064E+00
     7 -.12717588506352E+00
     8 -.34684499410892E-01
     9 0.72191694528980E-01
    10 0.34929333986543E-01
    11 -.78553003284604E+00
    12 0.12691879594901E+01
    13 0.10286386433821E+01
    14 -.48701000381739E-03
    15 0.79752855051951E-03
    16 -.31051854670213E-03
    17 -.57781081939082E-02
    18 -.39961989223019E-02
    19 0.67811007299663E-02
    20 0.20975245078398E-02
    21 -.76656261836464E-02
    22 0.55681016758067E-02
    23 0.28845593047625E-01
    24 0.18657793996813E-01
    25 -.17782195176765E-01
    26 0.44984594375481E-01
    27 0.10556190914894E+01
    28 0.80092656547091E+00
    29 -.30846596464978E-01
    30 -.66376530154737E-02
    31 -.65400205312840E-02
    32 0.89531480838290E-01
    33 -.20191278597439E+00
    34 -.18515624862625E+00
    35 0.11458653099520E-01
    36 0.10234037064205E+01
    37 0.44606427138782E+00
    38 0.10426389984877E-01
    39 0.28553978673666E-01
    40 -.95052757989728E-02
    41 0.12260076754844E+00
    42 -.18044763578348E-01
    43 -.16584053622693E+00
    44 -.29844461451640E-01
    45 0.81410375251523E+00
    46 0.24650652331484E+00
    47 0.44105257724360E-02
    48 -.59530956026090E-03
    49 0.22564950660534E-01
    50 0.11591460865341E+00
    51 -.13965971521911E+00
    52 0.72280372808515E-01
 Sym=    10a
 Ene= 0.19091294488325E+00
 Spin= Alpha
 Occup= 0.000000
     1 -.41612304139258E-01
     2 -.21357776345946E+00
     3 0.71787789185967E+00
     4 0.43810134741950E+01
     5 0.36673042363692E-01
     6 -.15136617151723E-01
     7 0.44721148283760E-01
     8 0.30544681939001E+00
     9 -.15455413130070E+00
    10 0.84520340567646E-01
    11 0.78151990302320E+00
    12 -.57738251737298E-01
    13 0.88547840339048E+00
    14 -.18322754691489E-02
    15 0.14147038756839E-03
    16 0.16908050815805E-02
    17 -.60619252234219E-02
    18 -.19101575360889E-02
    19 0.25324941485451E-02
    20 0.29682384071565E-01
    21 -.39657826365909E-02
    22 -.25716601434974E-01
    23 0.40930411323510E-01
    24 0.21779332293045E-01
    25 -.37280635018216E-01
    26 -.77965494001572E-01
    27 -.22739176456037E+01
    28 -.19457830143093E+01
    29 0.26676209282911E-01
    30 -.66460348360269E-03
    31 0.40543089885402E-02
    32 0.60030691696954E+00
    33 -.17293317902158E+00
    34 -.15399472657562E+00
    35 -.64699798436060E-02
    36 -.74493722750504E+00
    37 -.57656031312684E+00
    38 -.37417984587460E-02
    39 -.20516557867810E-01
    40 0.12691390335939E-01
    41 0.32755621535741E-01
    42 -.32426039330785E+00
    43 -.11858574503726E-01
    44 0.11272994331667E+00
    45 0.43989412108075E+00
    46 0.35522055179626E+00
    47 0.10040894216162E-02
    48 0.18754073863389E-02
    49 -.62450521708572E-02
    50 0.20337410741910E-01
    51 -.21136155710373E-01
    52 -.21359570654252E+00
 Sym=    11a
 Ene= 0.20106010153223E+00
 Spin= Alpha
 Occup= 0.000000
     1 0.25703319680919E-02
     2 0.19320500848158E-01
     3 0.71018827441375E-01
     4 -.41147452495238E+00
     5 -.96248192680435E-01
     6 -.70877985260666E-01
     7 0.39602878313190E-02
     8 0.37976965760300E+00
     9 0.34980064425947E+00
    10 -.80813640086608E-01
    11 0.25396160927560E+01
    12 0.20608330459498E+01
    13 -.60569533043904E+00
    14 -.55648975242786E-02
    15 0.61055207250144E-02
    16 -.54062320073588E-03
    17 0.28548281565600E-02
    18 0.32931816973611E-03
    19 -.19652048750983E-02
    20 0.62684051240360E-01
    21 -.73056211770350E-01
    22 0.10372160529990E-01
    23 -.30174669256852E-01
    24 -.44581660548303E-02
    25 0.27773714554237E-01
    26 -.11486710419031E+00
    27 -.25417786856029E+01
    28 -.36155880599666E+01
    29 0.83450593643729E-02
    30 -.20916884179534E-02
    31 0.53029856653438E-03
    32 0.47164924707784E+00
    33 -.10933311304118E+00
    34 -.17796270314044E-01
    35 0.11934595130772E+00
    36 0.27809992962946E+01
    37 0.36525257797119E+01
    38 0.18163915089059E-01
    39 0.29319836239590E-01
    40 -.12402346120887E-01
    41 0.15519242590037E+00
    42 0.59290285527353E+00
    43 -.95574703417435E-01
    44 -.20912246928494E-01
    45 0.93810125993634E-01
    46 0.12555982068660E+00
    47 0.70455246574518E-02
    48 0.64362108976678E-02
    49 -.12496376485100E-02
    50 0.24135455353695E-01
    51 -.25397145834422E-01
    52 0.91709407022041E-01
 Sym=    12a
 Ene= 0.20349348828177E+00
 Spin= Alpha
 Occup= 0.000000
     1 0.14425224408757E-01
     2 0.78235540460423E-01
     3 -.93842631191302E-01
     4 -.16702716240970E+01
     5 -.73049901246007E-01
     6 0.36139234382796E-01
     7 -.11667799022248E+00
     8 0.11973105405030E+00
     9 -.87194665511377E-01
    10 0.31779748163781E+00
    11 0.14253965948775E+01
    12 -.11597651705160E+01
    13 0.23618260761527E+01
    14 -.51309373793789E-02
    15 -.55016493909128E-02
    16 0.10632586770292E-01
    17 0.31572749311690E-02
    18 0.32690655111065E-02
    19 -.35627858395568E-03
    20 0.39213574052860E-01
    21 0.54326608636589E-01
    22 -.93540182689449E-01
    23 -.23047589939686E-01
    24 -.31598527906805E-01
    25 0.15490109467923E-01
    26 -.52573636531461E-01
    27 -.62487037107594E+00
    28 -.15519699621547E+01
    29 -.54249478982706E-02
    30 0.49274261431737E-02
    31 -.60537390052753E-02
    32 0.97968670721023E-02
    33 0.11565560281089E+00
    34 -.16038036968538E+00
    35 -.56624014045029E-01
    36 -.36507021215060E+00
    37 -.90613423891613E+00
    38 -.38204677635336E-02
    39 -.19190227515687E-02
    40 0.35994679085882E-02
    41 -.77950630209798E-01
    42 0.55199630558100E-01
    43 -.95099043295240E-01
    44 0.64019219067053E-01
    45 0.22251387759052E+01
    46 0.31748950800057E+01
    47 0.23293371779919E-01
    48 -.18584079643026E-01
    49 0.41370839021360E-01
    50 0.12658985343532E+00
    51 -.27257279806744E-01
    52 0.56098387310961E+00
 Sym=    13a
 Ene= 0.25989376968083E+00
 Spin= Alpha
 Occup= 0.000000
     1 0.21449291686633E-01
     2 0.33711375761209E-01
     3 -.52648408771279E+00
     4 -.27196605951360E+01
     5 0.72859345954768E-01
     6 -.12149730412723E+00
     7 0.24152650710509E+00
     8 0.55267403296963E-02
     9 -.31353716420373E-02
    10 0.14564718271846E+00
    11 -.16390701483778E+00
    12 0.32392013399529E+00
    13 -.16376878615463E+00
    14 -.30377009182137E-02
    15 -.46773539592332E-02
    16 0.77150548774468E-02
    17 -.58134614068910E-02
    18 0.11852188093666E-01
    19 -.75183751915979E-02
    20 0.74685006694115E-02
    21 0.61161026176081E-02
    22 -.13584603287020E-01
    23 0.27702631413460E-02
    24 -.32359894393902E-01
    25 0.23104308306072E-01
    26 0.20991717362978E-01
    27 0.92110156637802E+00
    28 0.86698779190409E+00
    29 -.14821076347846E-01
    30 -.69826861714154E-02
    31 0.16800250280275E-01
    32 -.33636516149480E+00
    33 -.31020315259393E-01
    34 0.28950364995237E+00
    35 -.20780612388169E-01
    36 0.59114919137244E+00
    37 0.10407415238364E+01
    38 0.11920698660268E-01
    39 0.15479226427796E-01
    40 0.52642303766683E-02
    41 0.18019781894672E+00
    42 0.46479901698238E+00
    43 0.89429798746957E-01
    44 0.17715757115197E+00
    45 0.11491309869076E+01
    46 -.10925246541360E+01
    47 -.13482251012820E-02
    48 -.10944177453767E-02
    49 0.35785588402927E-02
    50 -.19900485967345E+00
    51 0.92601292124768E-01
    52 -.49589909579258E+00
 Sym=    14a
 Ene= 0.30849702095832E+00
 Spin= Alpha
 Occup= 0.000000
     1 0.99571286058744E-02
     2 -.14090951977712E-01
     3 -.29953394264882E+00
     4 -.21154040420386E+01
     5 0.13690825375674E+00
     6 0.14213347028556E+00
     7 -.15482109287247E-01
     8 0.17257954467787E+00
     9 0.12712848634571E+00
    10 -.13868738442282E-01
    11 -.29023369496331E+00
    12 -.42856004673238E-01
    13 0.12426309382183E+00
    14 -.90159750125618E-02
    15 0.52729253318332E-02
    16 0.37430496807286E-02
    17 0.54705394476023E-02
    18 -.69963746804281E-02
    19 -.16469693611670E-01
    20 0.64190849210599E-01
    21 -.40975935891641E-01
    22 -.23214913318958E-01
    23 -.31397588023223E-01
    24 0.36325760398194E-01
    25 0.74292961637243E-01
    26 -.26484547132459E-01
    27 0.20940956911609E+00
    28 0.12856332590452E+01
    29 -.12610125840202E-01
    30 0.69303161111767E-02
    31 -.58537945944611E-02
    32 -.42672144329534E+00
    33 0.34637986241414E+00
    34 -.87379958381311E-01
    35 0.12704968781234E+00
    36 0.14536248127461E+01
    37 -.85359913300583E+00
    38 0.32398263497866E-02
    39 0.11356261777192E-01
    40 0.64890464739374E-02
    41 0.11311600656928E-01
    42 -.48037499781708E+00
    43 0.41520279258234E+00
    44 0.39251712690504E-01
    45 0.70122779990495E+00
    46 0.51709306548966E-01
    47 0.79157882121767E-02
    48 0.43291531941643E-02
    49 0.51253547414914E-02
    50 0.28814329955327E+00
    51 0.38690318950018E+00
    52 -.13538947392769E-01
 Sym=    15a
 Ene= 0.34281533102317E+00
 Spin= Alpha
 Occup= 0.000000
     1 -.92404244381139E-02
     2 0.14242507141533E-01
     3 0.24471435282972E+00
     4 0.13722762204643E+01
     5 -.63429362983871E-01
     6 -.66266201288591E-01
     7 0.11216039526057E-03
     8 -.11021828748045E+00
     9 0.35863884733316E-01
    10 0.79438691520010E-01
    11 -.65056802094053E+00
    12 -.47132945153721E+00
    13 -.13095068283929E+00
    14 -.86401518945171E-02
    15 -.44546059677828E-03
    16 0.90856124912954E-02
    17 -.13102771506276E-01
    18 -.23537566217954E-01
    19 -.16719820600274E-01
    20 0.35091971778177E-01
    21 0.14326523368802E-01
    22 -.49418495146979E-01
    23 0.88038150697249E-01
    24 0.15675202266340E+00
    25 0.10684887457907E+00
    26 -.86568611047740E-02
    27 -.12243185554474E+01
    28 0.28881587081013E+00
    29 -.88082024143941E-02
    30 -.14590516750182E-01
    31 -.23308158029246E-01
    32 0.50828121580473E+00
    33 -.44507050338610E+00
    34 -.82770030846300E+00
    35 -.32502328556881E-01
    36 -.12864329600058E+00
    37 -.30462278475845E+00
    38 0.51058154719366E-02
    39 -.12431789805241E-01
    40 0.18565108983605E-01
    41 0.52155886623078E+00
    42 0.74234477220338E+00
    43 0.58894766225885E+00
    44 -.16139132537737E-01
    45 -.44774252267652E+00
    46 -.22056502192614E+00
    47 0.10989939973592E-01
    48 0.93396184340865E-02
    49 -.55957887985373E-02
    50 0.69402081345515E+00
    51 0.48941218497713E+00
    52 -.44088197942227E-01
 Sym=    16a
 Ene= 0.34502820003960E+00
 Spin= Alpha
 Occup= 0.000000
     1 -.70079534262831E-02
     2 -.14259143334120E-01
     3 0.15569625126556E+00
     4 -.50045289170723E-01
     5 -.23850773735426E-01
     6 0.19241865803071E-01
     7 -.48342915797057E-01
     8 -.85587353407167E-01
     9 0.11618707188592E+00
    10 -.11803731547417E+00
    11 -.13375700353723E+00
    12 0.16747325233550E+00
    13 -.44771956849119E+00
    14 -.13013256751144E-02
    15 0.63603009485702E-02
    16 -.50589752734558E-02
    17 -.23894220816275E-01
    18 0.17664734628110E-01
    19 -.10490747024040E-01
    20 0.18280794960382E-01
    21 -.29507645763587E-01
    22 0.11226850803204E-01
    23 0.18792859864542E+00
    24 -.13753885453656E+00
    25 0.61875770315097E-01
    26 0.77642270203454E-02
    27 -.20279033090905E+00
    28 0.40910173578911E-01
    29 -.67029391958845E-02
    30 -.32275346122457E-01
    31 0.22590493902614E-01
    32 0.25723353543377E+00
    33 -.83405557343644E+00
    34 0.61885795667594E+00
    35 -.11788755182947E-01
    36 -.63446046420613E+00
    37 0.12013892919488E+00
    38 0.29311012284304E-01
    39 0.72753109811986E-03
    40 0.23124180503890E-02
    41 0.61904003658853E+00
    42 -.57895748206554E+00
    43 0.19066876900593E+00
    44 0.22854583374363E-01
    45 0.74905243233337E+00
    46 -.13936270679161E+00
    47 -.83327890229954E-02
    48 0.33663472953220E-02
    49 -.37437902488017E-02
    50 -.37482173386575E+00
    51 0.49879672762109E+00
    52 0.86824358019496E+00
 Sym=    17a
 Ene= 0.35852685983307E+00
 Spin= Alpha
 Occup= 0.000000
     1 -.16459443788483E-02
     2 -.66974919846793E-01
     3 0.20910137298184E-01
     4 -.25297047783750E+01
     5 -.74091207026819E-01
     6 -.19871679949376E-01
     7 -.13868738727317E-01
     8 0.76084261610568E-02
     9 -.21836623379338E+00
    10 -.14452858908730E+00
    11 -.57563651609984E-01
    12 -.10316321439207E+00
    13 0.10507814007870E+00
    14 0.16640728519018E-01
    15 -.10607652929296E-01
    16 -.60330755897220E-02
    17 0.11535329399138E-01
    18 -.16444270875386E-02
    19 -.14697442213691E-01
    20 -.97311476632372E-01
    21 0.67153053450678E-01
    22 0.30158423181693E-01
    23 -.73952584273049E-01
    24 0.23398487848439E-01
    25 0.63279422552437E-01
    26 0.67327063065153E-01
    27 0.85120601691857E+00
    28 -.13456667721436E+00
    29 -.40495902443290E-02
    30 0.17199487989263E-01
    31 0.88698670189264E-03
    32 0.11389590077797E+01
    33 0.41002591524919E+00
    34 -.24054971393614E-01
    35 0.26652104464891E-01
    36 0.13205871594049E+01
    37 0.22019014269060E+00
    38 -.95141751291322E-02
    39 0.22069613588714E-02
    40 0.56395798220141E-02
    41 -.52036622605011E+00
    42 0.44982283629757E+00
    43 0.44957669441418E+00
    44 0.18840221485264E-01
    45 0.87997294138010E+00
    46 0.32908137773521E+00
    47 0.42750657578679E-02
    48 -.62170792391398E-03
    49 -.23776440464567E-02
    50 -.17744429149500E+00
    51 0.38591792117094E+00
    52 0.20290194672715E+00
 Sym=    18a
 Ene= 0.47216474371950E+00
 Spin= Alpha
 Occup= 0.000000
     1 0.27938650985320E-02
     2 -.52683967988689E-01
     3 -.48731497909991E+00
     4 -.55178411012330E+01
     5 -.12807967142235E+00
     6 0.18633921661534E+00
     7 0.14805987428199E+00
     8 -.74169605486720E+00
     9 0.84889389822914E+00
    10 0.62332371565980E+00
    11 -.11789363853775E+01
    12 0.12336523462574E+01
    13 0.78674892459549E+00
    14 -.10092780633568E-01
    15 0.17993353253377E-02
    16 0.82934453082305E-02
    17 -.20268423424880E-02
    18 0.13515804899826E-02
    19 0.49526825652684E-02
    20 -.28099669423418E-01
    21 -.98820407047480E-02
    22 0.37981710128166E-01
    23 0.64295260850783E-01
    24 0.38108735539532E-01
    25 -.44649835494074E-01
    26 0.41238559513066E-01
    27 0.32656636357961E+01
    28 0.95284055220242E+00
    29 -.41104474215012E-01
    30 -.13792942795796E-01
    31 -.39555417230549E-02
    32 0.44796724367582E+00
    33 -.71088807930188E+00
    34 -.45263843934319E+00
    35 0.28507957062500E-01
    36 0.16155763074510E+01
    37 0.32397203808144E+00
    38 0.19308485266938E-01
    39 0.18556087094852E-01
    40 -.65942475046531E-02
    41 0.34376116869669E+00
    42 -.61500522042313E+00
    43 -.36217390111505E+00
    44 0.49252603964580E-01
    45 0.12831886177054E+01
    46 0.86531735366251E-01