o2_cc_pvtz_pure
SP        RHF                                                         CC-pVTZ
Number of atoms                            I                2
Charge                                     I                0
Multiplicity                               I                1
Number of electrons                        I               16
Number of alpha electrons                  I                8
Number of beta electrons                   I                8
Number of basis functions                  I               60
Number of contracted shells                I               20
Highest angular momentum                   I                3
Largest degree of contraction              I                7
Number of primitive shells                 I               48
SCF Energy                                 R     -1.495944878699246E+02
Total Energy                               R     -1.495944878699246E+02
RMS Density                                R      6.062683245915114E-06
Atomic numbers                             I   N=           2
           8           8
Nuclear charges                            R   N=           2
  8.00000000E+00  8.00000000E+00
Current cartesian coordinates              R   N=           6
  0.00000000E+00  0.00000000E+00  1.09122830E+00  1.33636924E-16  0.00000000E+00
 -1.09122830E+00
Integer atomic weights                     I   N=           2
          16          16
Real atomic weights                        R   N=           2
  1.59949146E+01  1.59949146E+01
Shell types                                I   N=          20
           0           0           0           0           1           1
           1          -2          -2          -3           0           0
           0           0           1           1           1          -2
          -2          -3
Number of primitives per shell             I   N=          20
           7           7           1           1           3           1
           1           1           1           1           7           7
           1           1           3           1           1           1
           1           1
Shell to atom map                          I   N=          20
           1           1           1           1           1           1
           1           1           1           1           2           2
           2           2           2           2           2           2
           2           2
Primitive exponents                        R   N=          48
  1.53300000E+04  2.29900000E+03  5.22400000E+02  1.47300000E+02  4.75500000E+01
  1.67600000E+01  6.20700000E+00  1.53300000E+04  2.29900000E+03  5.22400000E+02
  4.75500000E+01  1.67600000E+01  6.20700000E+00  6.88200000E-01  1.75200000E+00
  2.38400000E-01  3.44600000E+01  7.74900000E+00  2.28000000E+00  7.15600000E-01
  2.14000000E-01  2.31400000E+00  6.45000000E-01  1.42800000E+00  1.53300000E+04
  2.29900000E+03  5.22400000E+02  1.47300000E+02  4.75500000E+01  1.67600000E+01
  6.20700000E+00  1.53300000E+04  2.29900000E+03  5.22400000E+02  4.75500000E+01
  1.67600000E+01  6.20700000E+00  6.88200000E-01  1.75200000E+00  2.38400000E-01
  3.44600000E+01  7.74900000E+00  2.28000000E+00  7.15600000E-01  2.14000000E-01
  2.31400000E+00  6.45000000E-01  1.42800000E+00
Contraction coefficients                   R   N=          48
  5.19808943E-04  4.02025621E-03  2.07128267E-02  8.10105536E-02  2.35962985E-01
  4.42653446E-01  3.57064423E-01  9.13376623E-06  6.07362596E-05  2.68782282E-04
 -6.96940030E-03 -6.06456900E-02 -1.65519536E-01  1.07151369E+00  1.00000000E+00
  1.00000000E+00  4.11634896E-02  2.57762836E-01  8.02419274E-01  1.00000000E+00
  1.00000000E+00  1.00000000E+00  1.00000000E+00  1.00000000E+00  5.19808943E-04
  4.02025621E-03  2.07128267E-02  8.10105536E-02  2.35962985E-01  4.42653446E-01
  3.57064423E-01  9.13376623E-06  6.07362596E-05  2.68782282E-04 -6.96940030E-03
 -6.06456900E-02 -1.65519536E-01  1.07151369E+00  1.00000000E+00  1.00000000E+00
  4.11634896E-02  2.57762836E-01  8.02419274E-01  1.00000000E+00  1.00000000E+00
  1.00000000E+00  1.00000000E+00  1.00000000E+00
Coordinates of each shell                  R   N=          60
  0.00000000E+00  0.00000000E+00  1.09122830E+00  0.00000000E+00  0.00000000E+00
  1.09122830E+00  0.00000000E+00  0.00000000E+00  1.09122830E+00  0.00000000E+00
  0.00000000E+00  1.09122830E+00  0.00000000E+00  0.00000000E+00  1.09122830E+00
  0.00000000E+00  0.00000000E+00  1.09122830E+00  0.00000000E+00  0.00000000E+00
  1.09122830E+00  0.00000000E+00  0.00000000E+00  1.09122830E+00  0.00000000E+00
  0.00000000E+00  1.09122830E+00  0.00000000E+00  0.00000000E+00  1.09122830E+00
  1.33636924E-16  0.00000000E+00 -1.09122830E+00  1.33636924E-16  0.00000000E+00
 -1.09122830E+00  1.33636924E-16  0.00000000E+00 -1.09122830E+00  1.33636924E-16
  0.00000000E+00 -1.09122830E+00  1.33636924E-16  0.00000000E+00 -1.09122830E+00
  1.33636924E-16  0.00000000E+00 -1.09122830E+00  1.33636924E-16  0.00000000E+00
 -1.09122830E+00  1.33636924E-16  0.00000000E+00 -1.09122830E+00  1.33636924E-16
  0.00000000E+00 -1.09122830E+00  1.33636924E-16  0.00000000E+00 -1.09122830E+00
Alpha Orbital Energies                     R   N=          60
 -2.07286164E+01 -2.07274313E+01 -1.70401172E+00 -1.08400820E+00 -7.88757201E-01
 -7.53478713E-01 -6.76958404E-01 -4.46092083E-01  5.17534446E-02  4.35576900E-01
  7.03301236E-01  7.04519424E-01  7.24355362E-01  8.05597892E-01  8.22201474E-01
  8.47389239E-01  8.80731393E-01  1.43323898E+00  1.45716798E+00  1.45804750E+00
  1.59690414E+00  1.60023627E+00  1.92746746E+00  1.92801026E+00  2.44889567E+00
  2.48080042E+00  2.50101987E+00  2.51857896E+00  3.91463674E+00  3.91465570E+00
  4.09419790E+00  4.21508935E+00  4.22738725E+00  4.96478102E+00  4.96487809E+00
  5.06809029E+00  5.11107531E+00  5.19989841E+00  5.30599649E+00  5.30616968E+00
  5.43345498E+00  5.62016238E+00  5.62016834E+00  6.11559562E+00  6.26453195E+00
  6.26618937E+00  6.54675635E+00  6.54698153E+00  6.76964363E+00  6.77040060E+00
  6.83089259E+00  6.86123886E+00  6.95864882E+00  6.99573259E+00  7.35769902E+00
  7.64744523E+00  7.81760179E+00  7.86371717E+00  8.08131943E+00  1.41788717E+01
Alpha MO coefficients                      R   N=        3600
  6.91048117E-01 -4.87520501E-03  3.03633717E-02  1.33587052E-03  0.00000000E+00
  0.00000000E+00 -1.69199348E-03  0.00000000E+00  0.00000000E+00  3.70395143E-04
  0.00000000E+00  0.00000000E+00 -1.91754608E-04  2.37471159E-04  0.00000000E+00
  0.00000000E+00  1.70019328E-04  0.00000000E+00 -1.67303932E-04  0.00000000E+00
  0.00000000E+00  8.30181271E-05  0.00000000E+00  1.72716201E-04  0.00000000E+00
  0.00000000E+00  4.37971454E-05  0.00000000E+00  0.00000000E+00  0.00000000E+00
  6.91048117E-01 -4.87520501E-03  3.03633717E-02  1.33587052E-03  0.00000000E+00
  0.00000000E+00  1.69199348E-03  0.00000000E+00  0.00000000E+00 -3.70395143E-04
  0.00000000E+00  0.00000000E+00  1.91754608E-04  2.37471159E-04  0.00000000E+00
  0.00000000E+00  1.70019328E-04  0.00000000E+00 -1.67303932E-04  0.00000000E+00
  0.00000000E+00  8.30181271E-05  0.00000000E+00 -1.72716201E-04  0.00000000E+00
  0.00000000E+00 -4.37971454E-05  0.00000000E+00  0.00000000E+00  0.00000000E+00
  6.90809987E-01 -7.14966634E-03  3.08355308E-02  1.00470875E-03  0.00000000E+00
  0.00000000E+00 -1.60274301E-03  0.00000000E+00  0.00000000E+00  2.95473815E-03
  0.00000000E+00  0.00000000E+00 -6.78989008E-06 -3.05463712E-05  0.00000000E+00
  0.00000000E+00  1.88400817E-04  0.00000000E+00 -1.22478036E-03  0.00000000E+00
  0.00000000E+00  1.62136211E-04  0.00000000E+00  1.47934694E-04  0.00000000E+00
  0.00000000E+00  5.62652956E-06  0.00000000E+00  0.00000000E+00  0.00000000E+00
 -6.90809987E-01  7.14966634E-03 -3.08355308E-02 -1.00470875E-03  0.00000000E+00
  0.00000000E+00 -1.60274301E-03  0.00000000E+00  0.00000000E+00  2.95473815E-03
  0.00000000E+00  0.00000000E+00 -6.78989008E-06  3.05463712E-05  0.00000000E+00
  0.00000000E+00 -1.88400817E-04  0.00000000E+00  1.22478036E-03  0.00000000E+00
  0.00000000E+00 -1.62136211E-04  0.00000000E+00  1.47934694E-04  0.00000000E+00
  0.00000000E+00  5.62652956E-06  0.00000000E+00  0.00000000E+00  0.00000000E+00
 -1.52692246E-01  3.56382686E-01  9.64317961E-02  1.41755592E-01  0.00000000E+00
  0.00000000E+00 -9.25226643E-02  0.00000000E+00  0.00000000E+00 -1.13821968E-01
  0.00000000E+00  0.00000000E+00 -1.72218769E-02  1.20589238E-02  0.00000000E+00
  0.00000000E+00  7.88258359E-05  0.00000000E+00  2.06676161E-02  0.00000000E+00
  0.00000000E+00 -2.14973006E-03  0.00000000E+00 -7.39159345E-03  0.00000000E+00
  0.00000000E+00  1.81776298E-03  0.00000000E+00  0.00000000E+00  0.00000000E+00
 -1.52692246E-01  3.56382686E-01  9.64317961E-02  1.41755592E-01  0.00000000E+00
  0.00000000E+00  9.25226643E-02  0.00000000E+00  0.00000000E+00  1.13821968E-01
  0.00000000E+00  0.00000000E+00  1.72218769E-02  1.20589238E-02  0.00000000E+00
  0.00000000E+00  7.88258359E-05  0.00000000E+00  2.06676161E-02  0.00000000E+00
  0.00000000E+00 -2.14973006E-03  0.00000000E+00  7.39159345E-03  0.00000000E+00
  0.00000000E+00 -1.81776298E-03  0.00000000E+00  0.00000000E+00  0.00000000E+00
 -1.58052780E-01  3.96356734E-01  1.14412403E-01  3.25780717E-01  0.00000000E+00
  0.00000000E+00  9.05706301E-02  0.00000000E+00  0.00000000E+00  1.02799274E-01
  0.00000000E+00  0.00000000E+00  3.52242282E-02 -4.31445314E-03  0.00000000E+00
  0.00000000E+00  7.07695311E-04  0.00000000E+00 -8.96619063E-03  0.00000000E+00
  0.00000000E+00  2.93247031E-03  0.00000000E+00  6.61454961E-04  0.00000000E+00
  0.00000000E+00 -6.97329300E-04  0.00000000E+00  0.00000000E+00  0.00000000E+00
  1.58052780E-01 -3.96356734E-01 -1.14412403E-01 -3.25780717E-01  0.00000000E+00
  0.00000000E+00  9.05706301E-02  0.00000000E+00  0.00000000E+00  1.02799274E-01
  0.00000000E+00  0.00000000E+00  3.52242282E-02  4.31445314E-03  0.00000000E+00
  0.00000000E+00 -7.07695311E-04  0.00000000E+00  8.96619063E-03  0.00000000E+00
  0.00000000E+00 -2.93247031E-03  0.00000000E+00  6.61454961E-04  0.00000000E+00
  0.00000000E+00 -6.97329300E-04  0.00000000E+00  0.00000000E+00  0.00000000E+00
  0.00000000E+00  0.00000000E+00  0.00000000E+00  0.00000000E+00  2.61057425E-01
  0.00000000E+00  0.00000000E+00  3.29710173E-01  0.00000000E+00  0.00000000E+00
  1.71673232E-01  0.00000000E+00  0.00000000E+00  0.00000000E+00 -1.01096196E-02
  0.00000000E+00  0.00000000E+00  0.00000000E+00  0.00000000E+00 -2.26709532E-02
  0.00000000E+00  0.00000000E+00  0.00000000E+00  0.00000000E+00  7.23888718E-03
  0.00000000E+00  0.00000000E+00  0.00000000E+00 -2.88623665E-03  0.00000000E+00
  0.00000000E+00  0.00000000E+00  0.00000000E+00  0.00000000E+00  2.61057425E-01
  0.00000000E+00  0.00000000E+00  3.29710173E-01  0.00000000E+00  0.00000000E+00
  1.71673232E-01  0.00000000E+00  0.00000000E+00  0.00000000E+00  1.01096196E-02
  0.00000000E+00  0.00000000E+00  0.00000000E+00  0.00000000E+00  2.26709532E-02
  0.00000000E+00  0.00000000E+00  0.00000000E+00  0.00000000E+00  7.23888718E-03
  0.00000000E+00  0.00000000E+00  0.00000000E+00 -2.88623665E-03  0.00000000E+00
 -5.52450846E-02  1.23200493E-01  4.27175214E-02  2.28252068E-01  0.00000000E+00
  0.00000000E+00  2.57071938E-01  0.00000000E+00  0.00000000E+00  3.19923527E-01
  0.00000000E+00  0.00000000E+00  1.56183664E-01 -1.38437792E-02  0.00000000E+00
  0.00000000E+00  5.67600750E-04  0.00000000E+00 -2.61966015E-02  0.00000000E+00
  0.00000000E+00  1.05540759E-03  0.00000000E+00  7.08071087E-03  0.00000000E+00
  0.00000000E+00 -2.04456368E-03  0.00000000E+00  0.00000000E+00  0.00000000E+00
 -5.52450846E-02  1.23200493E-01  4.27175214E-02  2.28252068E-01  0.00000000E+00
  0.00000000E+00 -2.57071938E-01  0.00000000E+00  0.00000000E+00 -3.19923527E-01
  0.00000000E+00  0.00000000E+00 -1.56183664E-01 -1.38437792E-02  0.00000000E+00
  0.00000000E+00  5.67600750E-04  0.00000000E+00 -2.61966015E-02  0.00000000E+00
  0.00000000E+00  1.05540759E-03  0.00000000E+00 -7.08071087E-03  0.00000000E+00
  0.00000000E+00  2.04456368E-03  0.00000000E+00  0.00000000E+00  0.00000000E+00
  0.00000000E+00  0.00000000E+00  0.00000000E+00  0.00000000E+00  0.00000000E+00
  2.36184811E-01  0.00000000E+00  0.00000000E+00  3.13266600E-01  0.00000000E+00
  0.00000000E+00  2.00725859E-01  0.00000000E+00  0.00000000E+00  0.00000000E+00
 -1.19862639E-02  0.00000000E+00  0.00000000E+00  0.00000000E+00  0.00000000E+00
 -4.12096109E-02  0.00000000E+00  0.00000000E+00  0.00000000E+00  0.00000000E+00
  7.28706399E-03  0.00000000E+00  0.00000000E+00  0.00000000E+00 -2.84319577E-03
  0.00000000E+00  0.00000000E+00  0.00000000E+00  0.00000000E+00  0.00000000E+00
  2.36184811E-01  0.00000000E+00  0.00000000E+00  3.13266600E-01  0.00000000E+00
  0.00000000E+00  2.00725859E-01  0.00000000E+00  0.00000000E+00  0.00000000E+00
  1.19862639E-02  0.00000000E+00  0.00000000E+00  0.00000000E+00  0.00000000E+00
  4.12096109E-02  0.00000000E+00  0.00000000E+00  0.00000000E+00  0.00000000E+00
  7.28706399E-03  0.00000000E+00  0.00000000E+00  0.00000000E+00 -2.84319577E-03
  0.00000000E+00  0.00000000E+00  0.00000000E+00  0.00000000E+00  2.98624434E-01
  0.00000000E+00  0.00000000E+00  3.79134071E-01  0.00000000E+00  0.00000000E+00
  3.41353087E-01  0.00000000E+00  0.00000000E+00  0.00000000E+00  3.27505777E-03
  0.00000000E+00  0.00000000E+00  0.00000000E+00  0.00000000E+00  6.37866608E-03
  0.00000000E+00  0.00000000E+00  0.00000000E+00  0.00000000E+00 -2.00676728E-04
  0.00000000E+00  0.00000000E+00  0.00000000E+00 -2.74644915E-03  0.00000000E+00
  0.00000000E+00  0.00000000E+00  0.00000000E+00  0.00000000E+00 -2.98624434E-01
  0.00000000E+00  0.00000000E+00 -3.79134071E-01  0.00000000E+00  0.00000000E+00
 -3.41353087E-01  0.00000000E+00  0.00000000E+00  0.00000000E+00  3.27505777E-03
  0.00000000E+00  0.00000000E+00  0.00000000E+00  0.00000000E+00  6.37866608E-03
  0.00000000E+00  0.00000000E+00  0.00000000E+00  0.00000000E+00  2.00676728E-04
  0.00000000E+00  0.00000000E+00  0.00000000E+00  2.74644915E-03  0.00000000E+00
  0.00000000E+00  0.00000000E+00  0.00000000E+00  0.00000000E+00  0.00000000E+00
  2.62077900E-01  0.00000000E+00  0.00000000E+00  3.30344220E-01  0.00000000E+00
  0.00000000E+00  4.90657617E-01  0.00000000E+00  0.00000000E+00  0.00000000E+00
  5.31796674E-03  0.00000000E+00  0.00000000E+00  0.00000000E+00  0.00000000E+00
  3.77621189E-03  0.00000000E+00  0.00000000E+00  0.00000000E+00  0.00000000E+00
 -1.04709502E-03  0.00000000E+00  0.00000000E+00  0.00000000E+00 -2.61147210E-03
  0.00000000E+00  0.00000000E+00  0.00000000E+00  0.00000000E+00  0.00000000E+00
 -2.62077900E-01  0.00000000E+00  0.00000000E+00 -3.30344220E-01  0.00000000E+00
  0.00000000E+00 -4.90657617E-01  0.00000000E+00  0.00000000E+00  0.00000000E+00
  5.31796674E-03  0.00000000E+00  0.00000000E+00  0.00000000E+00  0.00000000E+00
  3.77621189E-03  0.00000000E+00  0.00000000E+00  0.00000000E+00  0.00000000E+00
  1.04709502E-03  0.00000000E+00  0.00000000E+00  0.00000000E+00  2.61147210E-03
 -8.60382929E-02  2.07490116E-01  3.24778604E-02  2.85217960E+00  0.00000000E+00
  0.00000000E+00 -1.05502945E-01  0.00000000E+00  0.00000000E+00 -3.02064322E-01
  0.00000000E+00  0.00000000E+00 -2.09792491E+00 -2.33844747E-02  0.00000000E+00
  0.00000000E+00 -3.58560309E-04  0.00000000E+00  1.77110428E-01  0.00000000E+00
  0.00000000E+00  1.45657470E-03  0.00000000E+00 -2.32842925E-02  0.00000000E+00
  0.00000000E+00  1.04039345E-03  0.00000000E+00  0.00000000E+00  0.00000000E+00
  8.60382929E-02 -2.07490116E-01 -3.24778604E-02 -2.85217960E+00  0.00000000E+00
  0.00000000E+00 -1.05502945E-01  0.00000000E+00  0.00000000E+00 -3.02064322E-01
  0.00000000E+00  0.00000000E+00 -2.09792491E+00  2.33844747E-02  0.00000000E+00
  0.00000000E+00  3.58560309E-04  0.00000000E+00 -1.77110428E-01  0.00000000E+00
  0.00000000E+00 -1.45657470E-03  0.00000000E+00 -2.32842925E-02  0.00000000E+00
  0.00000000E+00  1.04039345E-03  0.00000000E+00  0.00000000E+00  0.00000000E+00
  0.00000000E+00  0.00000000E+00  0.00000000E+00  0.00000000E+00 -1.58161294E-01
  0.00000000E+00  0.00000000E+00 -5.15337576E-01  0.00000000E+00  0.00000000E+00
  7.09636569E-01  0.00000000E+00  0.00000000E+00  0.00000000E+00  5.58123812E-03
  0.00000000E+00  0.00000000E+00  0.00000000E+00  0.00000000E+00  5.77768932E-02
  0.00000000E+00  0.00000000E+00  0.00000000E+00  0.00000000E+00 -1.63527728E-03
  0.00000000E+00  0.00000000E+00  0.00000000E+00  9.79618840E-04  0.00000000E+00
  0.00000000E+00  0.00000000E+00  0.00000000E+00  0.00000000E+00 -1.58161294E-01
  0.00000000E+00  0.00000000E+00 -5.15337576E-01  0.00000000E+00  0.00000000E+00
  7.09636569E-01  0.00000000E+00  0.00000000E+00  0.00000000E+00 -5.58123812E-03
  0.00000000E+00  0.00000000E+00  0.00000000E+00  0.00000000E+00 -5.77768932E-02
  0.00000000E+00  0.00000000E+00  0.00000000E+00  0.00000000E+00 -1.63527728E-03
  0.00000000E+00  0.00000000E+00  0.00000000E+00  9.79618840E-04  0.00000000E+00
  0.00000000E+00  0.00000000E+00  0.00000000E+00  0.00000000E+00  0.00000000E+00
 -1.59448448E-01  0.00000000E+00  0.00000000E+00 -5.35266912E-01  0.00000000E+00
  0.00000000E+00  7.03289364E-01  0.00000000E+00  0.00000000E+00  0.00000000E+00
  7.20832096E-03  0.00000000E+00  0.00000000E+00  0.00000000E+00  0.00000000E+00
  7.13634313E-02  0.00000000E+00  0.00000000E+00  0.00000000E+00  0.00000000E+00
 -2.19655346E-03  0.00000000E+00  0.00000000E+00  0.00000000E+00  1.12483857E-03
  0.00000000E+00  0.00000000E+00  0.00000000E+00  0.00000000E+00  0.00000000E+00
 -1.59448448E-01  0.00000000E+00  0.00000000E+00 -5.35266912E-01  0.00000000E+00
  0.00000000E+00  7.03289364E-01  0.00000000E+00  0.00000000E+00  0.00000000E+00
 -7.20832096E-03  0.00000000E+00  0.00000000E+00  0.00000000E+00  0.00000000E+00
 -7.13634313E-02  0.00000000E+00  0.00000000E+00  0.00000000E+00  0.00000000E+00
 -2.19655346E-03  0.00000000E+00  0.00000000E+00  0.00000000E+00  1.12483857E-03
  2.44743368E-02 -3.18390044E-02 -2.56855045E-03  3.49940517E-01  0.00000000E+00
  0.00000000E+00 -1.11753771E-01  0.00000000E+00  0.00000000E+00 -4.71377788E-01
  0.00000000E+00  0.00000000E+00  1.05505835E+00  3.01986227E-02  0.00000000E+00
  0.00000000E+00 -1.00239525E-04  0.00000000E+00 -2.06362435E-02  0.00000000E+00
  0.00000000E+00  5.01475251E-03  0.00000000E+00  1.04348650E-02  0.00000000E+00
  0.00000000E+00  1.55638795E-04  0.00000000E+00  0.00000000E+00  0.00000000E+00
  2.44743368E-02 -3.18390044E-02 -2.56855045E-03  3.49940517E-01  0.00000000E+00
  0.00000000E+00  1.11753771E-01  0.00000000E+00  0.00000000E+00  4.71377788E-01
  0.00000000E+00  0.00000000E+00 -1.05505835E+00  3.01986227E-02  0.00000000E+00
  0.00000000E+00 -1.00239525E-04  0.00000000E+00 -2.06362435E-02  0.00000000E+00
  0.00000000E+00  5.01475251E-03  0.00000000E+00 -1.04348650E-02  0.00000000E+00
  0.00000000E+00 -1.55638795E-04  0.00000000E+00  0.00000000E+00  0.00000000E+00
  4.03525396E-02 -8.30136264E-02 -7.38127950E-02  1.64667640E+00  0.00000000E+00
  0.00000000E+00  3.46084331E-01  0.00000000E+00  0.00000000E+00  3.77196573E-01
  0.00000000E+00  0.00000000E+00 -1.34320681E+00 -2.23459461E-03  0.00000000E+00
  0.00000000E+00 -5.25810841E-04  0.00000000E+00  3.36247543E-01  0.00000000E+00
  0.00000000E+00 -4.06157885E-05  0.00000000E+00 -3.33576176E-02  0.00000000E+00
  0.00000000E+00 -2.46259419E-03  0.00000000E+00  0.00000000E+00  0.00000000E+00
 -4.03525396E-02  8.30136264E-02  7.38127950E-02 -1.64667640E+00  0.00000000E+00
  0.00000000E+00  3.46084331E-01  0.00000000E+00  0.00000000E+00  3.77196573E-01
  0.00000000E+00  0.00000000E+00 -1.34320681E+00  2.23459461E-03  0.00000000E+00
  0.00000000E+00  5.25810841E-04  0.00000000E+00 -3.36247543E-01  0.00000000E+00
  0.00000000E+00  4.06157885E-05  0.00000000E+00 -3.33576176E-02  0.00000000E+00
  0.00000000E+00 -2.46259419E-03  0.00000000E+00  0.00000000E+00  0.00000000E+00
  0.00000000E+00  0.00000000E+00  0.00000000E+00  0.00000000E+00 -1.67918698E-01
  0.00000000E+00  0.00000000E+00 -5.06058658E-01  0.00000000E+00  0.00000000E+00
  1.35362553E+00  0.00000000E+00  0.00000000E+00  0.00000000E+00  1.69261318E-02
  0.00000000E+00  0.00000000E+00  0.00000000E+00  0.00000000E+00 -7.88668038E-02
  0.00000000E+00  0.00000000E+00  0.00000000E+00  0.00000000E+00  1.33962074E-02
  0.00000000E+00  0.00000000E+00  0.00000000E+00  1.15913644E-03  0.00000000E+00
  0.00000000E+00  0.00000000E+00  0.00000000E+00  0.00000000E+00  1.67918698E-01
  0.00000000E+00  0.00000000E+00  5.06058658E-01  0.00000000E+00  0.00000000E+00
 -1.35362553E+00  0.00000000E+00  0.00000000E+00  0.00000000E+00  1.69261318E-02
  0.00000000E+00  0.00000000E+00  0.00000000E+00  0.00000000E+00 -7.88668038E-02
  0.00000000E+00  0.00000000E+00  0.00000000E+00  0.00000000E+00 -1.33962074E-02
  0.00000000E+00  0.00000000E+00  0.00000000E+00 -1.15913644E-03  0.00000000E+00
  0.00000000E+00  0.00000000E+00  0.00000000E+00  0.00000000E+00  0.00000000E+00
 -1.93062434E-01  0.00000000E+00  0.00000000E+00 -5.58902949E-01  0.00000000E+00
  0.00000000E+00  1.31220553E+00  0.00000000E+00  0.00000000E+00  0.00000000E+00
  1.60415300E-02  0.00000000E+00  0.00000000E+00  0.00000000E+00  0.00000000E+00
 -8.63019793E-02  0.00000000E+00  0.00000000E+00  0.00000000E+00  0.00000000E+00
  1.48467007E-02  0.00000000E+00  0.00000000E+00  0.00000000E+00  1.50848655E-03
  0.00000000E+00  0.00000000E+00  0.00000000E+00  0.00000000E+00  0.00000000E+00
  1.93062434E-01  0.00000000E+00  0.00000000E+00  5.58902949E-01  0.00000000E+00
  0.00000000E+00 -1.31220553E+00  0.00000000E+00  0.00000000E+00  0.00000000E+00
  1.60415300E-02  0.00000000E+00  0.00000000E+00  0.00000000E+00  0.00000000E+00
 -8.63019793E-02  0.00000000E+00  0.00000000E+00  0.00000000E+00  0.00000000E+00
 -1.48467007E-02  0.00000000E+00  0.00000000E+00  0.00000000E+00 -1.50848655E-03
  3.25352264E-02 -8.97490577E-01 -1.60543269E-01  9.40859577E-01  0.00000000E+00
  0.00000000E+00 -3.80133999E-02  0.00000000E+00  0.00000000E+00 -4.66862392E-02
  0.00000000E+00  0.00000000E+00 -7.70709429E-02 -7.53520257E-03  0.00000000E+00
  0.00000000E+00  2.80618353E-03  0.00000000E+00 -1.33656342E-01  0.00000000E+00
  0.00000000E+00 -2.25798908E-02  0.00000000E+00  1.31944892E-03  0.00000000E+00
  0.00000000E+00  1.14175923E-03  0.00000000E+00  0.00000000E+00  0.00000000E+00
  3.25352264E-02 -8.97490577E-01 -1.60543269E-01  9.40859577E-01  0.00000000E+00
  0.00000000E+00  3.80133999E-02  0.00000000E+00  0.00000000E+00  4.66862392E-02
  0.00000000E+00  0.00000000E+00  7.70709429E-02 -7.53520257E-03  0.00000000E+00
  0.00000000E+00  2.80618353E-03  0.00000000E+00 -1.33656342E-01  0.00000000E+00
  0.00000000E+00 -2.25798908E-02  0.00000000E+00 -1.31944892E-03  0.00000000E+00
  0.00000000E+00 -1.14175923E-03  0.00000000E+00  0.00000000E+00  0.00000000E+00
  4.12573598E-02 -9.94479981E-01 -3.66203273E-01  6.40609198E+00  0.00000000E+00
  0.00000000E+00  8.34330302E-02  0.00000000E+00  0.00000000E+00 -7.94473365E-01
  0.00000000E+00  0.00000000E+00 -2.73877485E+00 -1.37575623E-02  0.00000000E+00
  0.00000000E+00  3.13244075E-03  0.00000000E+00  5.64192653E-01  0.00000000E+00
  0.00000000E+00 -1.72735207E-02  0.00000000E+00 -1.15019758E-01  0.00000000E+00
  0.00000000E+00 -1.20400702E-04  0.00000000E+00  0.00000000E+00  0.00000000E+00
 -4.12573598E-02  9.94479981E-01  3.66203273E-01 -6.40609198E+00  0.00000000E+00
  0.00000000E+00  8.34330302E-02  0.00000000E+00  0.00000000E+00 -7.94473365E-01
  0.00000000E+00  0.00000000E+00 -2.73877485E+00  1.37575623E-02  0.00000000E+00
  0.00000000E+00 -3.13244075E-03  0.00000000E+00 -5.64192653E-01  0.00000000E+00
  0.00000000E+00  1.72735207E-02  0.00000000E+00 -1.15019758E-01  0.00000000E+00
  0.00000000E+00 -1.20400702E-04  0.00000000E+00  0.00000000E+00  0.00000000E+00
  0.00000000E+00  0.00000000E+00  0.00000000E+00  0.00000000E+00  0.00000000E+00
  0.00000000E+00  0.00000000E+00  0.00000000E+00  0.00000000E+00  0.00000000E+00
  0.00000000E+00  0.00000000E+00  0.00000000E+00  0.00000000E+00  0.00000000E+00
  0.00000000E+00  0.00000000E+00 -8.22263891E-03  0.00000000E+00  0.00000000E+00
  0.00000000E+00  0.00000000E+00  6.43077130E-01  0.00000000E+00  0.00000000E+00
  0.00000000E+00  0.00000000E+00 -1.56246956E-02  0.00000000E+00  0.00000000E+00
  0.00000000E+00  0.00000000E+00  0.00000000E+00  0.00000000E+00  0.00000000E+00
  0.00000000E+00  0.00000000E+00  0.00000000E+00  0.00000000E+00  0.00000000E+00
  0.00000000E+00  0.00000000E+00  0.00000000E+00  0.00000000E+00  0.00000000E+00
  0.00000000E+00  0.00000000E+00 -8.22263891E-03  0.00000000E+00  0.00000000E+00
  0.00000000E+00  0.00000000E+00  6.43077130E-01  0.00000000E+00  0.00000000E+00
  0.00000000E+00  0.00000000E+00  1.56246956E-02  0.00000000E+00  0.00000000E+00
 -1.55744682E-03 -3.42249410E-02 -1.62530319E-03  3.08838629E-02  0.00000000E+00
  0.00000000E+00 -2.78801735E-03  0.00000000E+00  0.00000000E+00  2.93222689E-03
  0.00000000E+00  0.00000000E+00 -1.31544224E-02 -1.03051962E-03  0.00000000E+00
  0.00000000E+00 -8.16557677E-03  0.00000000E+00 -2.55350119E-03  0.00000000E+00
  0.00000000E+00  6.42666217E-01  0.00000000E+00 -1.05652479E-03  0.00000000E+00
  0.00000000E+00 -1.56022996E-02  0.00000000E+00  0.00000000E+00  0.00000000E+00
 -1.55744682E-03 -3.42249410E-02 -1.62530319E-03  3.08838629E-02  0.00000000E+00
  0.00000000E+00  2.78801735E-03  0.00000000E+00  0.00000000E+00 -2.93222689E-03
  0.00000000E+00  0.00000000E+00  1.31544224E-02 -1.03051962E-03  0.00000000E+00
  0.00000000E+00 -8.16557677E-03  0.00000000E+00 -2.55350119E-03  0.00000000E+00
  0.00000000E+00  6.42666217E-01  0.00000000E+00  1.05652479E-03  0.00000000E+00
  0.00000000E+00  1.56022996E-02  0.00000000E+00  0.00000000E+00  0.00000000E+00
  0.00000000E+00  0.00000000E+00  0.00000000E+00  0.00000000E+00  0.00000000E+00
  9.35496870E-02  0.00000000E+00  0.00000000E+00  2.03939526E-01  0.00000000E+00
  0.00000000E+00 -4.76731253E-02  0.00000000E+00  0.00000000E+00  0.00000000E+00
  1.02173502E-02  0.00000000E+00  0.00000000E+00  0.00000000E+00  0.00000000E+00
  5.97792834E-01  0.00000000E+00  0.00000000E+00  0.00000000E+00  0.00000000E+00
  1.26684965E-02  0.00000000E+00  0.00000000E+00  0.00000000E+00 -2.82637975E-04
  0.00000000E+00  0.00000000E+00  0.00000000E+00  0.00000000E+00  0.00000000E+00
  9.35496870E-02  0.00000000E+00  0.00000000E+00  2.03939526E-01  0.00000000E+00
  0.00000000E+00 -4.76731253E-02  0.00000000E+00  0.00000000E+00  0.00000000E+00
 -1.02173502E-02  0.00000000E+00  0.00000000E+00  0.00000000E+00  0.00000000E+00
 -5.97792834E-01  0.00000000E+00  0.00000000E+00  0.00000000E+00  0.00000000E+00
  1.26684965E-02  0.00000000E+00  0.00000000E+00  0.00000000E+00 -2.82637975E-04
  0.00000000E+00  0.00000000E+00  0.00000000E+00  0.00000000E+00  8.60412498E-02
  0.00000000E+00  0.00000000E+00  1.72483899E-01  0.00000000E+00  0.00000000E+00
 -3.68565947E-02  0.00000000E+00  0.00000000E+00  0.00000000E+00  1.27894579E-02
  0.00000000E+00  0.00000000E+00  0.00000000E+00  0.00000000E+00  5.98937423E-01
  0.00000000E+00  0.00000000E+00  0.00000000E+00  0.00000000E+00  1.26071555E-02
  0.00000000E+00  0.00000000E+00  0.00000000E+00 -1.22198493E-04  0.00000000E+00
  0.00000000E+00  0.00000000E+00  0.00000000E+00  0.00000000E+00  8.60412498E-02
  0.00000000E+00  0.00000000E+00  1.72483899E-01  0.00000000E+00  0.00000000E+00
 -3.68565947E-02  0.00000000E+00  0.00000000E+00  0.00000000E+00 -1.27894579E-02
  0.00000000E+00  0.00000000E+00  0.00000000E+00  0.00000000E+00 -5.98937423E-01
  0.00000000E+00  0.00000000E+00  0.00000000E+00  0.00000000E+00  1.26071555E-02
  0.00000000E+00  0.00000000E+00  0.00000000E+00 -1.22198493E-04  0.00000000E+00
  0.00000000E+00  0.00000000E+00  0.00000000E+00  0.00000000E+00  0.00000000E+00
  0.00000000E+00  0.00000000E+00  0.00000000E+00  0.00000000E+00  0.00000000E+00
  0.00000000E+00  0.00000000E+00  0.00000000E+00  0.00000000E+00  0.00000000E+00
  0.00000000E+00  0.00000000E+00 -7.72956568E-03  0.00000000E+00  0.00000000E+00
  0.00000000E+00  0.00000000E+00  8.01076735E-01  0.00000000E+00  0.00000000E+00
  0.00000000E+00  0.00000000E+00  8.51268769E-03  0.00000000E+00  0.00000000E+00
  0.00000000E+00  0.00000000E+00  0.00000000E+00  0.00000000E+00  0.00000000E+00
  0.00000000E+00  0.00000000E+00  0.00000000E+00  0.00000000E+00  0.00000000E+00
  0.00000000E+00  0.00000000E+00  0.00000000E+00  0.00000000E+00  0.00000000E+00
  0.00000000E+00  0.00000000E+00  7.72956568E-03  0.00000000E+00  0.00000000E+00
  0.00000000E+00  0.00000000E+00 -8.01076735E-01  0.00000000E+00  0.00000000E+00
  0.00000000E+00  0.00000000E+00  8.51268769E-03  0.00000000E+00  0.00000000E+00
 -2.20904589E-05 -1.89438690E-02 -5.93527337E-03  1.91887179E-01  0.00000000E+00
  0.00000000E+00  6.44389524E-04  0.00000000E+00  0.00000000E+00 -3.89958588E-02
  0.00000000E+00  0.00000000E+00 -8.36920218E-02 -1.48530788E-03  0.00000000E+00
  0.00000000E+00 -7.74463484E-03  0.00000000E+00  3.59231097E-02  0.00000000E+00
  0.00000000E+00  8.00851707E-01  0.00000000E+00 -4.25369632E-03  0.00000000E+00
  0.00000000E+00  8.52318338E-03  0.00000000E+00  0.00000000E+00  0.00000000E+00
  2.20904589E-05  1.89438690E-02  5.93527337E-03 -1.91887179E-01  0.00000000E+00
  0.00000000E+00  6.44389524E-04  0.00000000E+00  0.00000000E+00 -3.89958588E-02
  0.00000000E+00  0.00000000E+00 -8.36920218E-02  1.48530788E-03  0.00000000E+00
  0.00000000E+00  7.74463484E-03  0.00000000E+00 -3.59231097E-02  0.00000000E+00
  0.00000000E+00 -8.00851707E-01  0.00000000E+00 -4.25369632E-03  0.00000000E+00
  0.00000000E+00  8.52318338E-03  0.00000000E+00  0.00000000E+00  0.00000000E+00
 -1.02990326E-02 -6.97513744E-01 -1.94376034E-01  3.61255631E-01  0.00000000E+00
  0.00000000E+00 -7.38300303E-02  0.00000000E+00  0.00000000E+00  5.29400085E-01
  0.00000000E+00  0.00000000E+00 -7.08947171E-01  5.68115092E-03  0.00000000E+00
  0.00000000E+00  9.40719189E-04  0.00000000E+00  8.98711508E-01  0.00000000E+00
  0.00000000E+00 -8.14764573E-04  0.00000000E+00  7.32678797E-03  0.00000000E+00