 O2 m=3 uhf/6-311+g*
GAUSSIAN             16 MOL ORBITALS     72 PRIMITIVES        2 NUCLEI
  O    1    (CENTRE  1)   0.00000000  0.00000000  1.09452498  CHARGE =  8.0
  O    2    (CENTRE  2)   0.00000000  0.00000000 -1.09452498  CHARGE =  8.0
CENTRE ASSIGNMENTS    1  1  1  1  1  1  1  1  1  1  1  1  1  1  1  1  1  1  1  1
CENTRE ASSIGNMENTS    1  1  1  1  1  1  1  1  1  1  1  1  1  1  1  1  2  2  2  2
CENTRE ASSIGNMENTS    2  2  2  2  2  2  2  2  2  2  2  2  2  2  2  2  2  2  2  2
CENTRE ASSIGNMENTS    2  2  2  2  2  2  2  2  2  2  2  2
TYPE ASSIGNMENTS      1  1  1  1  1  1  1  1  1  2  2  2  3  3  3  4  4  4  1  2
TYPE ASSIGNMENTS      3  4  1  2  3  4  1  2  3  4  5  6  7  8  9 10  1  1  1  1
TYPE ASSIGNMENTS      1  1  1  1  1  2  2  2  3  3  3  4  4  4  1  2  3  4  1  2
TYPE ASSIGNMENTS      3  4  1  2  3  4  5  6  7  8  9 10
EXPONENTS  0.8588500D+04 0.1297230D+04 0.2992960D+03 0.8737710D+02 0.2567890D+02
EXPONENTS  0.3740040D+01 0.4211750D+02 0.9628370D+01 0.2853320D+01 0.4211750D+02
EXPONENTS  0.9628370D+01 0.2853320D+01 0.4211750D+02 0.9628370D+01 0.2853320D+01
EXPONENTS  0.4211750D+02 0.9628370D+01 0.2853320D+01 0.9056610D+00 0.9056610D+00
EXPONENTS  0.9056610D+00 0.9056610D+00 0.2556110D+00 0.2556110D+00 0.2556110D+00
EXPONENTS  0.2556110D+00 0.8450000D-01 0.8450000D-01 0.8450000D-01 0.8450000D-01
EXPONENTS  0.1292000D+01 0.1292000D+01 0.1292000D+01 0.1292000D+01 0.1292000D+01
EXPONENTS  0.1292000D+01 0.8588500D+04 0.1297230D+04 0.2992960D+03 0.8737710D+02
EXPONENTS  0.2567890D+02 0.3740040D+01 0.4211750D+02 0.9628370D+01 0.2853320D+01
EXPONENTS  0.4211750D+02 0.9628370D+01 0.2853320D+01 0.4211750D+02 0.9628370D+01
EXPONENTS  0.2853320D+01 0.4211750D+02 0.9628370D+01 0.2853320D+01 0.9056610D+00
EXPONENTS  0.9056610D+00 0.9056610D+00 0.9056610D+00 0.2556110D+00 0.2556110D+00
EXPONENTS  0.2556110D+00 0.2556110D+00 0.8450000D-01 0.8450000D-01 0.8450000D-01
EXPONENTS  0.8450000D-01 0.1292000D+01 0.1292000D+01 0.1292000D+01 0.1292000D+01
EXPONENTS  0.1292000D+01 0.1292000D+01
MO    1     MO 0.0        OCC NO =    1.0000000  ORB. ENERGY =  -20.752000
  0.46934964D+00  0.86320646D+00  0.14128841D+01  0.19040405D+01  0.18835016D+01
  0.20963910D+00  0.44743724D+00  0.11960201D+01 -0.17082730D-02 -0.22384077D-13
 -0.22982753D-13 -0.17369070D-13 -0.86194468D-13 -0.88499795D-13 -0.66883159D-13
 -0.85611651D-02 -0.87901390D-02 -0.66430917D-02  0.35006466D-02  0.19040455D-14
  0.68864113D-14  0.38266839D-03 -0.23132334D-03  0.13159928D-15  0.51081774D-15
 -0.26105304D-04  0.37236695D-04 -0.13624077D-16 -0.36713880D-16 -0.40752016D-05
  0.33050908D-03  0.33050908D-03 -0.66101816D-03 -0.28099727D-12 -0.27260205D-13
 -0.10562086D-12  0.46945242D+00  0.86339550D+00  0.14131935D+01  0.19044575D+01
  0.18839141D+01  0.20968501D+00  0.44753525D+00  0.11962821D+01 -0.17086472D-02
  0.22148515D-13  0.22740892D-13  0.17186285D-13  0.89770332D-13  0.92171297D-13
  0.69657873D-13  0.85629046D-02  0.87919250D-02  0.66444415D-02  0.35013794D-02
 -0.18287527D-14 -0.77586343D-14 -0.38293160D-03 -0.23144673D-03 -0.13590695D-15
 -0.40388989D-15  0.26083258D-04  0.37381785D-04  0.13765983D-16  0.26318966D-16
  0.41000063D-05  0.33067900D-03  0.33067900D-03 -0.66135799D-03  0.28136738D-12
 -0.27704075D-13 -0.10695448D-12
MO    2     MO 0.0        OCC NO =    1.0000000  ORB. ENERGY =  -20.751162
  0.46950879D+00  0.86349916D+00  0.14133632D+01  0.19046861D+01  0.18841402D+01
  0.20971019D+00  0.44768803D+00  0.11966905D+01 -0.17092305D-02 -0.18930055D-13
 -0.19436351D-13 -0.14688899D-13 -0.74967313D-13 -0.76972362D-13 -0.58171374D-13
 -0.79481409D-02 -0.81607190D-02 -0.61674116D-02  0.33495886D-02  0.65166321D-15
  0.27120729D-14  0.12019935D-02 -0.56417559D-03 -0.52612548D-16 -0.32061616D-15
  0.10085234D-03  0.66327123D-03 -0.68746049D-17  0.22873528D-16 -0.11339630D-03
  0.77572038D-03  0.77572038D-03 -0.15514408D-02 -0.26037754D-12 -0.19184340D-13
 -0.75935158D-13 -0.46940601D+00 -0.86331014D+00 -0.14130538D+01 -0.19042692D+01
 -0.18837278D+01 -0.20966428D+00 -0.44759006D+00 -0.11964286D+01  0.17088565D-02
 -0.20066909D-13 -0.20603611D-13 -0.15571049D-13 -0.78554694D-13 -0.80655690D-13
 -0.60955025D-13 -0.79462655D-02 -0.81587935D-02 -0.61659564D-02 -0.33488217D-02
  0.10995796D-14  0.39545239D-14  0.12019097D-02  0.56412486D-03 -0.19856307D-15
 -0.64730141D-15  0.10085805D-03 -0.66326305D-03  0.44175668D-16  0.12274289D-15
 -0.11339540D-03 -0.77564801D-03 -0.77564801D-03  0.15512960D-02 -0.26032232D-12
  0.19175210D-13  0.76162186D-13
MO    3     MO 0.0        OCC NO =    1.0000000  ORB. ENERGY =   -1.770738
 -0.10363403D+00 -0.19059899D+00 -0.31196972D+00 -0.42041877D+00 -0.41588371D+00
 -0.46289044D-01 -0.19298553D+00 -0.51585910D+00  0.73680047D-03  0.23469083D-12
  0.24096779D-12  0.18210988D-12  0.92767707D-12  0.95248839D-12  0.71983705D-12
 -0.38580322D+00 -0.39612177D+00 -0.29936652D+00  0.28343161D+00  0.48654776D-13
  0.19386489D-12 -0.14805027D+00  0.55446218D-01 -0.13352465D-13 -0.53090955D-13
 -0.57187128D-02 -0.18220190D-02  0.10545553D-14  0.41739211D-14  0.55820212D-03
 -0.22590450D-01 -0.22590450D-01  0.45180899D-01 -0.10997810D-10 -0.69300764D-12
 -0.27499552D-11 -0.10363405D+00 -0.19059902D+00 -0.31196976D+00 -0.42041882D+00
 -0.41588376D+00 -0.46289049D-01 -0.19298555D+00 -0.51585916D+00  0.73680056D-03
 -0.23430013D-12 -0.24056664D-12 -0.18180671D-12 -0.92782466D-12 -0.95263993D-12
 -0.71995158D-12  0.38580320D+00  0.39612176D+00  0.29936650D+00  0.28343165D+00
 -0.48759350D-13 -0.19402340D-12  0.14805027D+00  0.55446229D-01  0.13368443D-13
  0.53084554D-13  0.57187134D-02 -0.18220205D-02 -0.10560119D-14 -0.41731939D-14
 -0.55820238D-03 -0.22590447D-01 -0.22590447D-01  0.45180895D-01  0.10997827D-10
 -0.69291206D-12 -0.27496309D-11
MO    4     MO 0.0        OCC NO =    1.0000000  ORB. ENERGY =   -1.191766
 -0.10807148D+00 -0.19876014D+00 -0.32532777D+00 -0.43842043D+00 -0.43369118D+00
 -0.48271067D-01 -0.20334511D+00 -0.54355073D+00  0.77635237D-03 -0.18928072D-11
 -0.19434316D-11 -0.14687361D-11 -0.75010803D-11 -0.77017015D-11 -0.58205120D-11
  0.37137620D+00  0.38130889D+00  0.28817178D+00  0.30567724D+00 -0.75997824D-12
 -0.30133861D-11  0.12031986D+00  0.12345541D+00 -0.64436652D-13 -0.25515687D-12
 -0.24314280D-02 -0.20858151D-01  0.10215557D-14  0.40057773D-14  0.39571811D-02
  0.22564987D-01  0.22564987D-01 -0.45129974D-01 -0.14422813D-10 -0.88622001D-12
 -0.35132651D-11  0.10807147D+00  0.19876013D+00  0.32532776D+00  0.43842041D+00
  0.43369117D+00  0.48271065D-01  0.20334510D+00  0.54355071D+00 -0.77635234D-03
 -0.18916618D-11 -0.19422555D-11 -0.14678472D-11 -0.75003335D-11 -0.77009348D-11
 -0.58199326D-11  0.37137642D+00  0.38130912D+00  0.28817195D+00 -0.30567723D+00
 -0.76032414D-12 -0.30132866D-11  0.12031994D+00 -0.12345541D+00 -0.64396292D-13
 -0.25513319D-12 -0.24314207D-02  0.20858151D-01  0.10165326D-14  0.40038973D-14
  0.39571808D-02 -0.22564997D-01 -0.22564997D-01  0.45129994D-01 -0.14422497D-10
  0.88664683D-12  0.35133412D-11
MO    5     MO 0.0        OCC NO =    1.0000000  ORB. ENERGY =   -0.867505
  0.11082853D-15  0.20383079D-15  0.33362734D-15  0.44960516D-15  0.44475526D-15
  0.49502530D-16  0.21044373D-15  0.56252568D-15 -0.80345425D-18  0.11753926D+01
  0.12068292D+01  0.91205354D+00 -0.29671635D+00 -0.30465222D+00 -0.23023898D+00
  0.10816461D-14  0.11105754D-14  0.83931034D-15 -0.31651076D-15  0.41936425D+00
 -0.10586440D+00  0.42770322D-15 -0.19805540D-15  0.54002637D-01 -0.13632437D-01
  0.11835860D-15  0.57383928D-15 -0.15372886D-03  0.38807346D-04 -0.13708110D-15
 -0.18752658D-12  0.18756979D-12 -0.43213043D-16 -0.69463822D-12 -0.11174719D+00
  0.28209484D-01 -0.12298043D-15 -0.22618001D-15 -0.37020822D-15 -0.49890253D-15
 -0.49352086D-15 -0.54930281D-16 -0.23983147D-15 -0.64108046D-15  0.91565387D-18
  0.11753930D+01  0.12068296D+01  0.91205381D+00 -0.29671644D+00 -0.30465231D+00
 -0.23023905D+00  0.20628681D-15  0.21180409D-15  0.16006959D-15  0.36823224D-15
  0.41936437D+00 -0.10586443D+00  0.24675217D-15  0.25231105D-15  0.54002656D-01
 -0.13632442D-01 -0.73864001D-17 -0.58738978D-15 -0.15372880D-03  0.38807330D-04
 -0.10604245D-15  0.18704706D-12 -0.18702636D-12 -0.20706888D-16  0.69315097D-12
  0.11174719D+00 -0.28209483D-01
MO    6     MO 0.0        OCC NO =    1.0000000  ORB. ENERGY =   -0.867505
 -0.87292909D-12 -0.16054514D-11 -0.26277801D-11 -0.35412669D-11 -0.35030672D-11
 -0.38990138D-12 -0.16796800D-11 -0.44898611D-11  0.64128591D-14  0.29671635D+00
  0.30465222D+00  0.23023898D+00  0.11753926D+01  0.12068292D+01  0.91205354D+00
 -0.48904971D-11 -0.50212966D-11 -0.37948131D-11  0.26597764D-11  0.10586440D+00
  0.41936425D+00 -0.24914378D-11  0.13135605D-11  0.13632437D-01  0.54002637D-01
 -0.35695705D-12 -0.24495621D-12 -0.38807346D-04 -0.15372886D-03  0.58030200D-13
  0.33257026D-12 -0.36129013D-12  0.28719871D-13 -0.37361662D-12 -0.28209484D-01
 -0.11174719D+00  0.87295951D-12  0.16055073D-11  0.26278716D-11  0.35413903D-11
  0.35031893D-11  0.38991496D-12  0.16797410D-11  0.44900242D-11 -0.64130922D-14
  0.29671644D+00  0.30465231D+00  0.23023905D+00  0.11753930D+01  0.12068296D+01
  0.91205381D+00 -0.48893148D-11 -0.50200827D-11 -0.37938956D-11 -0.26599395D-11
  0.10586443D+00  0.41936437D+00 -0.24910554D-11 -0.13136015D-11  0.13632442D-01
  0.54002656D-01 -0.35687980D-12  0.24496255D-12 -0.38807330D-04 -0.15372880D-03
  0.58038961D-13 -0.33327099D-12  0.36191817D-12 -0.28647181D-13  0.37517989D-12
  0.28209483D-01  0.11174719D+00
MO    7     MO 0.0        OCC NO =    1.0000000  ORB. ENERGY =   -0.786591
 -0.33110930D-01 -0.60896113D-01 -0.99673893D-01 -0.13432321D+00 -0.13287427D+00
 -0.14789285D-01 -0.62587307D-01 -0.16729872D+00  0.23895241D-03 -0.69977594D-11
 -0.71849190D-11 -0.54299570D-11 -0.27734078D-10 -0.28475844D-10 -0.21520438D-10
  0.11769604D+01  0.12084390D+01  0.91327007D+00  0.91743013D-01 -0.24758131D-11
 -0.98122480D-11  0.42468789D+00  0.52341287D-01 -0.38507365D-12 -0.15261355D-11
  0.49061851D-01  0.31715027D-02  0.35690843D-14  0.14158050D-13 -0.79600463D-03
  0.42795993D-01  0.42795993D-01 -0.85591986D-01 -0.66881998D-11 -0.74121662D-12
 -0.29396792D-11 -0.33110913D-01 -0.60896081D-01 -0.99673841D-01 -0.13432314D+00
 -0.13287420D+00 -0.14789277D-01 -0.62587274D-01 -0.16729863D+00  0.23895229D-03
  0.69959954D-11  0.71831078D-11  0.54285881D-11  0.27732341D-10  0.28474060D-10
  0.21519090D-10 -0.11769604D+01 -0.12084390D+01 -0.91327008D+00  0.91742965D-01
  0.24758772D-11  0.98135010D-11 -0.42468789D+00  0.52341263D-01  0.38501803D-12
  0.15261280D-11 -0.49061854D-01  0.31715057D-02 -0.35673791D-14 -0.14151952D-13
  0.79600529D-03  0.42795989D-01  0.42795989D-01 -0.85591977D-01  0.66878948D-11
 -0.74142446D-12 -0.29402077D-11
MO    8     MO 0.0        OCC NO =    1.0000000  ORB. ENERGY =   -0.541368
  0.20227991D-12  0.37202398D-12  0.60892357D-12  0.82060174D-12  0.81174990D-12
  0.90350081D-13  0.37212477D-12  0.99470645D-12 -0.14207371D-14  0.11223249D+01
  0.11523422D+01  0.87087533D+00 -0.81027030D+00 -0.83194150D+00 -0.62873451D+00
 -0.78763356D-11 -0.80869933D-11 -0.61116939D-11 -0.50232411D-12  0.39434085D+00
 -0.28469712D+00 -0.29225308D-11 -0.34297460D-12  0.74364418D-01 -0.53687909D-01
 -0.40454623D-12 -0.88074382D-13  0.15740821D-02 -0.11364195D-02 -0.76449507D-14
 -0.80993238D-12  0.90115342D-13  0.71981704D-12 -0.75513422D-12  0.22077748D-01
 -0.15939184D-01  0.20224900D-12  0.37196714D-12  0.60883054D-12  0.82047636D-12
  0.81162588D-12  0.90336276D-13  0.37207285D-12  0.99456767D-12 -0.14205389D-14
 -0.11223247D+01 -0.11523420D+01 -0.87087517D+00  0.81027015D+00  0.83194135D+00
  0.62873439D+00  0.78762492D-11  0.80869046D-11  0.61116268D-11 -0.50225491D-12
 -0.39434077D+00  0.28469707D+00  0.29225334D-11 -0.34297056D-12 -0.74364405D-01
  0.53687900D-01  0.40450962D-12 -0.87752681D-13 -0.15740820D-02  0.11364195D-02
  0.77198617D-14 -0.80959418D-12  0.89762272D-13  0.71983191D-12 -0.75538914D-12
  0.22077786D-01 -0.15939211D-01
MO    9     MO 0.0        OCC NO =    1.0000000  ORB. ENERGY =   -0.541368
 -0.50911957D-12 -0.93634951D-12 -0.15326036D-11 -0.20653777D-11 -0.20430984D-11
 -0.22740269D-12 -0.93660581D-12 -0.25035900D-11  0.35758723D-14  0.81027030D+00
  0.83194150D+00  0.62873451D+00  0.11223249D+01  0.11523422D+01  0.87087533D+00
  0.19825034D-10  0.20355267D-10  0.15383364D-10  0.12642989D-11  0.28469712D+00
  0.39434085D+00  0.73561874D-11  0.86328689D-12  0.53687909D-01  0.74364418D-01
  0.10181929D-11  0.22129210D-12  0.11364195D-02  0.15740821D-02  0.19349988D-13
  0.12841023D-11  0.52774381D-12 -0.18118462D-11 -0.89935928D-12  0.15939184D-01
  0.22077748D-01 -0.50910239D-12 -0.93631791D-12 -0.15325519D-11 -0.20653080D-11
 -0.20430295D-11 -0.22739501D-12 -0.93657472D-12 -0.25035069D-11  0.35757536D-14
 -0.81027015D+00 -0.83194135D+00 -0.62873439D+00 -0.11223247D+01 -0.11523420D+01
 -0.87087517D+00 -0.19824895D-10 -0.20355125D-10 -0.15383256D-10  0.12643019D-11
 -0.28469707D+00 -0.39434077D+00 -0.73561404D-11  0.86320661D-12 -0.53687900D-01
 -0.74364405D-01 -0.10182169D-11  0.22131590D-12 -0.11364195D-02 -0.15740820D-02
 -0.19344076D-13  0.12836611D-11  0.52818681D-12 -0.18118479D-11 -0.90044947D-12
  0.15939211D-01  0.22077786D-01
MO   45     MO 0.0        OCC NO =    1.0000000  ORB. ENERGY =  -20.697027
  0.47035361D+00  0.86505292D+00  0.14159063D+01  0.19081134D+01  0.18875305D+01
  0.21008753D+00  0.44761377D+00  0.11964920D+01 -0.17089470D-02 -0.24122015D-13
 -0.24767174D-13 -0.18717634D-13 -0.87980511D-13 -0.90333607D-13 -0.68269050D-13
 -0.85221796D-02 -0.87501108D-02 -0.66128407D-02  0.15902613D-02  0.80831491D-15
  0.21809073D-14  0.44449478D-03  0.52123042D-04 -0.51178527D-15 -0.18255353D-14
 -0.93242960D-04  0.21347977D-05  0.91983750D-16  0.31734525D-15  0.11440088D-04
 -0.59248519D-03 -0.59248519D-03  0.11849704D-02  0.79555635D-12  0.59310437D-13
  0.23502299D-12  0.47041317D+00  0.86516245D+00  0.14160856D+01  0.19083550D+01
  0.18877695D+01  0.21011414D+00  0.44767046D+00  0.11966435D+01 -0.17091634D-02
  0.22091813D-13  0.22682673D-13  0.17142286D-13  0.86818263D-13  0.89140274D-13
  0.67367196D-13  0.85232074D-02  0.87511661D-02  0.66136383D-02  0.15904386D-02
 -0.72096503D-15 -0.16942149D-14 -0.44463240D-03  0.52141772D-04  0.46889044D-15
  0.17745174D-14  0.93263224D-04  0.21333720D-05 -0.78153226D-16 -0.31557171D-15
 -0.11441296D-04 -0.59251649D-03 -0.59251649D-03  0.11850330D-02 -0.79541767D-12
  0.59348438D-13  0.23492947D-12
MO   46     MO 0.0        OCC NO =    1.0000000  ORB. ENERGY =  -20.695583
  0.47049327D+00  0.86530978D+00  0.14163268D+01  0.19086799D+01  0.18880910D+01
  0.21014992D+00  0.44785808D+00  0.11971450D+01 -0.17098798D-02 -0.14409771D-13
 -0.14795169D-13 -0.11181355D-13 -0.68959780D-13 -0.70804154D-13 -0.53509790D-13
 -0.81244238D-02 -0.83417167D-02 -0.63041995D-02  0.14039956D-02  0.30934774D-14
  0.15427247D-13  0.10867269D-02  0.14692885D-03  0.25224168D-16 -0.25842340D-15
 -0.15980033D-03 -0.10178603D-04  0.10848655D-18  0.58243416D-16  0.93556563D-05
 -0.24777302D-03 -0.24777302D-03  0.49554604D-03  0.78436099D-12  0.49837870D-13
  0.19610436D-12 -0.47043373D+00 -0.86520027D+00 -0.14161475D+01 -0.19084384D+01
 -0.18878520D+01 -0.21012332D+00 -0.44780141D+00 -0.11969936D+01  0.17096634D-02
 -0.20548320D-13 -0.21097898D-13 -0.15944603D-13 -0.70932377D-13 -0.72829509D-13
 -0.55040439D-13 -0.81233442D-02 -0.83406083D-02 -0.63033618D-02 -0.14037938D-02
  0.47478178D-14  0.15901181D-13  0.10866706D-02 -0.14692232D-03 -0.15759928D-15
 -0.25274347D-15 -0.15978852D-03  0.10178883D-04  0.15664921D-16  0.27392155D-16
  0.93542101D-05  0.24769804D-03  0.24769804D-03 -0.49539607D-03  0.78426153D-12
 -0.48765662D-13 -0.19613358D-12
MO   47     MO 0.0        OCC NO =    1.0000000  ORB. ENERGY =   -1.642868
 -0.97544753D-01 -0.17939986D+00 -0.29363915D+00 -0.39571599D+00 -0.39144740D+00
 -0.43569213D-01 -0.18130850D+00 -0.48464588D+00  0.69221869D-03 -0.19949649D-11
 -0.20483215D-11 -0.15480060D-11 -0.79067075D-11 -0.81181775D-11 -0.61352611D-11
 -0.44536952D+00 -0.45728122D+00 -0.34558738D+00  0.25555510D+00 -0.72198137D-12
 -0.28616942D-11 -0.17395764D+00  0.58062251D-01 -0.48905768D-13 -0.19374559D-12
 -0.91101589D-02 -0.15827440D-02  0.26947330D-14  0.10659153D-13  0.82275478D-03
 -0.40875009D-01 -0.40875009D-01  0.81750017D-01  0.14449390D-10  0.10058722D-11
  0.39861399D-11 -0.97544760D-01 -0.17939988D+00 -0.29363917D+00 -0.39571602D+00
 -0.39144743D+00 -0.43569216D-01 -0.18130851D+00 -0.48464591D+00  0.69221874D-03
  0.19945035D-11  0.20478477D-11  0.15476479D-11  0.79063798D-11  0.81178411D-11
  0.61350069D-11  0.44536952D+00  0.45728121D+00  0.34558737D+00  0.25555513D+00
  0.72216340D-12  0.28616808D-11  0.17395764D+00  0.58062256D-01  0.48853990D-13
  0.19374077D-12  0.91101581D-02 -0.15827449D-02 -0.26830867D-14 -0.10661820D-13
 -0.82275492D-03 -0.40875009D-01 -0.40875009D-01  0.81750019D-01 -0.14448173D-10
  0.10058751D-11  0.39860134D-11
MO   48     MO 0.0        OCC NO =    1.0000000  ORB. ENERGY =   -0.981871
 -0.10103597D+00 -0.18582075D+00 -0.30414876D+00 -0.40987904D+00 -0.40545767D+00
 -0.45128595D-01 -0.19015238D+00 -0.50828596D+00  0.72598377D-03  0.40134876D-11
  0.41208309D-11  0.31142918D-11  0.15906501D-10  0.16331931D-10  0.12342753D-10
  0.44225117D+00  0.45407946D+00  0.34316767D+00  0.27800833D+00  0.13520172D-11
  0.53590978D-11  0.13921537D+00  0.11316799D+00  0.15214539D-12  0.60301792D-12
  0.13711650D-01 -0.22939584D-01  0.11564330D-14  0.45862550D-14  0.46255577D-02
 -0.98473337D-03 -0.98473337D-03  0.19694667D-02  0.17684454D-10  0.99616533D-12
  0.39481096D-11  0.10103597D+00  0.18582076D+00  0.30414878D+00  0.40987905D+00
  0.40545768D+00  0.45128597D-01  0.19015238D+00  0.50828598D+00 -0.72598380D-03
  0.40117613D-11  0.41190585D-11  0.31129523D-11  0.15904410D-10  0.16329783D-10
  0.12341130D-10  0.44225146D+00  0.45407976D+00  0.34316790D+00 -0.27800834D+00
  0.13524633D-11  0.53596811D-11  0.13921548D+00 -0.11316799D+00  0.15209148D-12
  0.60290748D-12  0.13711662D-01  0.22939583D-01  0.11678530D-14  0.46208522D-14
  0.46255575D-02  0.98472411D-03  0.98472411D-03 -0.19694482D-02  0.17684286D-10
 -0.99625078D-12 -0.39485553D-11
MO   49     MO 0.0        OCC NO =    1.0000000  ORB. ENERGY =   -0.718266
 -0.36293203D-01 -0.66748804D-01 -0.10925349D+00 -0.14723294D+00 -0.14564474D+00
 -0.16210675D-01 -0.67887118D-01 -0.18146536D+00  0.25918659D-03  0.11120632D-10
  0.11418060D-10  0.86291266D-11  0.44079377D-10  0.45258308D-10  0.34203679D-10
  0.11303080D+01  0.11605388D+01  0.87706987D+00  0.93142144D-01  0.38110564D-11
  0.15107270D-10  0.40698957D+00  0.58141903D-01  0.69691518D-12  0.27625060D-11
  0.51031600D-01  0.48121841D-02  0.70894796D-14  0.28109332D-13 -0.18986086D-03
  0.30158928D-01  0.30158928D-01 -0.60317857D-01  0.74240570D-11  0.49753337D-12
  0.19705671D-11 -0.36293179D-01 -0.66748760D-01 -0.10925342D+00 -0.14723284D+00
 -0.14564464D+00 -0.16210664D-01 -0.67887073D-01 -0.18146524D+00  0.25918642D-03
 -0.11123508D-10 -0.11421014D-10 -0.86313586D-11 -0.44080955D-10 -0.45259929D-10
 -0.34204904D-10 -0.11303080D+01 -0.11605388D+01 -0.87706983D+00  0.93142080D-01
 -0.38117272D-11 -0.15106593D-10 -0.40698956D+00  0.58141872D-01 -0.69710172D-12
 -0.27625322D-11 -0.51031600D-01  0.48121885D-02 -0.70892758D-14 -0.28106096D-13
  0.18986190D-03  0.30158928D-01  0.30158928D-01 -0.60317855D-01 -0.74247041D-11
  0.49697650D-12  0.19705794D-11
MO   50     MO 0.0        OCC NO =    1.0000000  ORB. ENERGY =   -0.601904
 -0.18850838D-15 -0.34669602D-15 -0.56746712D-15 -0.76473391D-15 -0.75648472D-15
 -0.84198908D-16 -0.35726348D-15 -0.95498155D-15  0.13639982D-17  0.99101777D+00
  0.10175232D+01  0.76898669D+00 -0.25012074D+00 -0.25681038D+00 -0.19408281D+00
 -0.24806024D-15 -0.25469477D-15 -0.19248396D-15  0.51265740D-15  0.36175699D+00
 -0.91303029D-01 -0.15706478D-15  0.46909843D-15  0.66911941D-01 -0.16887754D-01
 -0.14056878D-15  0.29879435D-16  0.12667696D-02 -0.31971713D-03  0.23730735D-17
 -0.15588996D-12  0.15601931D-12 -0.12934512D-15 -0.57844799D-12 -0.17682270D+00
  0.44627882D-01  0.13472213D-15  0.24777480D-15  0.40555428D-15  0.54653582D-15
  0.54064033D-15  0.60174812D-16  0.24880778D-15  0.66507452D-15 -0.94992454D-18
  0.99101785D+00  0.10175233D+01  0.76898675D+00 -0.25012075D+00 -0.25681040D+00
 -0.19408283D+00 -0.26727723D-14 -0.27442574D-14 -0.20739551D-14 -0.39521272D-15
  0.36175702D+00 -0.91303035D-01 -0.97151648D-15 -0.31634902D-15  0.66911944D-01
 -0.16887754D-01 -0.28897687D-15 -0.30195085D-16  0.12667696D-02 -0.31971713D-03
  0.19549870D-16  0.15607955D-12 -0.15603055D-12 -0.49005409D-16  0.57853807D-12
  0.17682270D+00 -0.44627881D-01
MO   51     MO 0.0        OCC NO =    1.0000000  ORB. ENERGY =   -0.601904
  0.20687726D-11  0.38047924D-11  0.62276301D-11  0.83925214D-11  0.83019912D-11
  0.92403531D-12  0.39781032D-11  0.10633651D-10 -0.15188022D-13  0.25012074D+00
  0.25681038D+00  0.19408281D+00  0.99101777D+00  0.10175232D+01  0.76898669D+00
  0.19254423D-10  0.19769395D-10  0.14940595D-10 -0.60169621D-11  0.91303030D-01
  0.36175699D+00  0.75630191D-11 -0.46947352D-11  0.16887754D-01  0.66911941D-01
  0.21556947D-11 -0.33403613D-12  0.31971713D-03  0.12667696D-02  0.26383386D-13
 -0.91498854D-13 -0.66329670D-12  0.75479555D-12 -0.31366695D-12 -0.44627882D-01
 -0.17682270D+00 -0.20687871D-11 -0.38048190D-11 -0.62276737D-11 -0.83925802D-11
 -0.83020493D-11 -0.92404178D-12 -0.39781402D-11 -0.10633750D-10  0.15188163D-13
  0.25012075D+00  0.25681040D+00  0.19408283D+00  0.99101785D+00  0.10175233D+01
  0.76898675D+00  0.19254379D-10  0.19769350D-10  0.14940561D-10  0.60170636D-11
  0.91303035D-01  0.36175702D+00  0.75629954D-11  0.46946683D-11  0.16887754D-01
  0.66911944D-01  0.21557122D-11  0.33407935D-12  0.31971713D-03  0.12667696D-02
  0.26365274D-13  0.84807787D-13  0.66991103D-12 -0.75471881D-12  0.31008831D-12
  0.44627881D-01  0.17682270D+00
END DATA
 TOTAL ENERGY =     -149.664140769678 THE VIRIAL(-V/T)=   1.99977770
