Foo Bar                                                                 
SP        RHF                                                         CC-pVDZ             
Number of atoms                            I                3
Charge                                     I                0
Multiplicity                               I                1
Number of electrons                        I               10
Number of alpha electrons                  I                5
Number of beta electrons                   I                5
Number of basis functions                  I               24
Number of independant functions            I               24
Number of point charges in /Mol/           I                0
Number of contracted shells                I               12
Highest angular momentum                   I                2
Largest degree of contraction              I                7
Number of primitive shells                 I               30
Pure/Cartesian d shells                    I                0
Pure/Cartesian f shells                    I                0
Virial Ratio                               R      1.998220338542021E+00
SCF Energy                                 R     -7.601091242432899E+01
Total Energy                               R     -7.601091242432899E+01
RMS Density                                R      6.557320249251726E-09
Atomic numbers                             I   N=           3
           8           1           1
Nuclear charges                            R   N=           3
  8.00000000E+00  1.00000000E+00  1.00000000E+00
Current cartesian coordinates              R   N=           9
  0.00000000E+00  0.00000000E+00  1.88972613E-01  0.00000000E+00  1.88972613E-01
  1.79523983E+00  1.69257101E+00 -1.88972613E-01 -5.98406347E-01
Integer atomic weights                     I   N=           3
          16           1           1
Real atomic weights                        R   N=           3
  1.59949146E+01  1.00782504E+00  1.00782504E+00
Shell types                                I   N=          12
           0           0           0           1           1          -2
           0           0           1           0           0           1
Number of primitives per shell             I   N=          12
           7           7           1           3           1           1
           3           1           1           3           1           1
Shell to atom map                          I   N=          12
           1           1           1           1           1           1
           2           2           2           3           3           3
Primitive exponents                        R   N=          30
  1.17200000E+04  1.75900000E+03  4.00800000E+02  1.13700000E+02  3.70300000E+01
  1.32700000E+01  5.02500000E+00  1.17200000E+04  1.75900000E+03  1.13700000E+02
  3.70300000E+01  1.32700000E+01  5.02500000E+00  1.01300000E+00  3.02300000E-01
  1.77000000E+01  3.85400000E+00  1.04600000E+00  2.75300000E-01  1.18500000E+00
  1.30100000E+01  1.96200000E+00  4.44600000E-01  1.22000000E-01  7.27000000E-01
  1.30100000E+01  1.96200000E+00  4.44600000E-01  1.22000000E-01  7.27000000E-01
Contraction coefficients                   R   N=          30
  7.11864434E-04  5.48520199E-03  2.79099296E-02  1.05133208E-01  2.84002490E-01
  4.51673946E-01  2.73208126E-01 -3.06123094E-07 -6.17623398E-05 -4.15727069E-03
 -1.41000884E-02 -1.26138481E-01 -1.09614598E-01  1.09868833E+00  1.00000000E+00
  6.26791663E-02  3.33536566E-01  7.41239642E-01  1.00000000E+00  1.00000000E+00
  3.34987264E-02  2.34800801E-01  8.13682958E-01  1.00000000E+00  1.00000000E+00
  3.34987264E-02  2.34800801E-01  8.13682958E-01  1.00000000E+00  1.00000000E+00
Coordinates of each shell                  R   N=          36
  0.00000000E+00  0.00000000E+00  1.88972613E-01  0.00000000E+00  0.00000000E+00
  1.88972613E-01  0.00000000E+00  0.00000000E+00  1.88972613E-01  0.00000000E+00
  0.00000000E+00  1.88972613E-01  0.00000000E+00  0.00000000E+00  1.88972613E-01
  0.00000000E+00  0.00000000E+00  1.88972613E-01  0.00000000E+00  1.88972613E-01
  1.79523983E+00  0.00000000E+00  1.88972613E-01  1.79523983E+00  0.00000000E+00
  1.88972613E-01  1.79523983E+00  1.69257101E+00 -1.88972613E-01 -5.98406347E-01
  1.69257101E+00 -1.88972613E-01 -5.98406347E-01  1.69257101E+00 -1.88972613E-01
 -5.98406347E-01
Alpha Orbital Energies                     R   N=          24
 -2.05376431E+01 -1.35030539E+00 -7.38331341E-01 -5.49686775E-01 -4.92350776E-01
  1.90076120E-01  2.59536007E-01  7.83341081E-01  9.16597444E-01  1.15326142E+00
  1.19615709E+00  1.25066565E+00  1.45997937E+00  1.52697122E+00  1.74421824E+00
  1.88229102E+00  1.91380230E+00  2.40973151E+00  2.75482054E+00  3.22512626E+00
  3.44648031E+00  3.45444235E+00  3.99092580E+00  4.17018288E+00
Alpha MO coefficients                      R   N=         576
  9.97246252E-01  1.56372114E-02 -2.43480494E-03  1.28492936E-03  7.64860028E-05
  1.27179682E-03 -4.08293141E-04  2.07783605E-05 -2.09215469E-05  3.39488923E-04
 -7.25565155E-05  7.96672227E-05  4.38797518E-05 -1.41104601E-05 -9.45998925E-04
  4.79184541E-04  2.31045990E-05  1.30766580E-04  1.12269424E-03 -1.33183465E-04
  4.06065082E-04  5.86522153E-04 -6.07894844E-05 -2.32943440E-04 -2.04858478E-01
  4.36237306E-01  3.54471912E-01  4.84067491E-02  5.22206103E-03  6.78073453E-02
 -7.34691618E-03 -1.40765786E-03 -1.55196269E-02  6.07035391E-03 -8.33066960E-04
  1.45907127E-03  1.29864349E-03 -2.56444711E-04  2.44209196E-01  9.99793509E-03
  7.42831358E-03 -6.09307410E-03 -4.81972134E-02  1.62694281E-01  9.39791961E-03
 -3.10646937E-02  4.60791016E-03  2.41377263E-02  1.47700906E-02 -3.41583962E-02
 -9.59269730E-02 -2.18957035E-01  6.37227133E-02  4.35708748E-01 -8.79840455E-02
  2.49056342E-02  1.69130043E-01  2.21856623E-02  1.04904871E-02  2.76557905E-03
 -1.00345482E-02  2.36563676E-03  3.58385740E-01  6.55994190E-02 -1.04890651E-02
 -3.81072653E-03 -3.74659243E-02 -3.19392255E-01 -8.47374859E-02  4.06460444E-02
 -3.02591753E-03 -6.05520472E-03  6.16693608E-02 -1.36368664E-01 -3.20211888E-01
  4.88051958E-01  4.71330070E-03  2.76189067E-01  3.39842123E-01  3.49900338E-03
  1.94161656E-01  2.21638224E-03  1.12153034E-02  1.40128955E-03  1.33215408E-02
 -2.07110105E-04  1.61079439E-01  1.11272581E-02  2.86713373E-02 -3.13304925E-03
 -1.27593454E-02  2.09038692E-01  5.69530506E-02 -9.42224202E-03  4.11559882E-03
  3.04239850E-02  1.98844698E-10 -4.89265673E-10 -1.24674034E-09  3.54929646E-02
  6.23567463E-01 -7.33608775E-02  2.79681067E-02  4.91365023E-01 -5.78076492E-02
 -2.19638663E-03 -9.85925688E-04  1.07205699E-02  2.79577759E-04  1.36233870E-02
  2.14868874E-10 -2.23477462E-11  1.93263277E-03  3.39539661E-02 -3.99458425E-03
  1.15110932E-09  1.10603268E-09  1.64572781E-03  2.89134019E-02 -3.40157663E-03
 -8.50711464E-02  7.74085333E-02  1.02227478E+00  1.78442919E-01 -6.53408713E-03
  3.07933015E-02  3.21427140E-01 -1.34355984E-02  4.13081141E-02  6.36532106E-03
 -1.38288139E-03  2.54525506E-03  9.56864422E-03 -1.27313985E-03 -5.57631717E-02
 -6.34995923E-01  3.93135527E-03  2.83109905E-03  2.59663834E-02 -8.12645889E-02
 -1.01976743E+00  2.26755822E-02 -2.39424456E-03 -9.38033212E-03  1.59297809E-02
 -1.28762137E-02 -2.88387053E-01  1.30623680E-01 -3.37018131E-02 -2.23267948E-01
  3.36122785E-01 -8.57305952E-02 -5.66089410E-01 -2.29826288E-02 -4.51736446E-03
 -3.67245261E-03  6.76480639E-03 -1.28110783E-03  9.32453529E-03  1.63253478E+00
 -2.82276752E-03 -4.91050231E-03 -4.31049620E-02 -2.20087686E-02 -1.24570891E+00
  1.94574362E-02 -1.59281548E-03 -4.12516652E-03  3.86556391E-02 -1.68371147E-01
  1.55958943E-01 -2.73222162E-01  2.36053460E-02  6.84569426E-02 -1.41958062E-01
  2.51842814E-02  1.45385206E-01 -1.41762873E-03 -7.08941980E-02  1.24580164E-02
  7.16366180E-02 -1.66328029E-02  5.13081224E-02  5.18627764E-02 -1.63340015E-01
  1.76039332E-02  7.06073709E-02  1.24273715E+00 -9.10615376E-01  2.22113478E-01
 -2.90537064E-02 -1.39495064E-01  4.63212585E-02 -1.10060004E-01 -1.84507728E-02
 -6.30997553E-03 -2.64468143E-02 -2.27850771E-01  1.82294761E-01 -6.74331052E-02
 -4.84984777E-01  1.17770635E-01 -7.93695977E-03  2.42036438E-02 -4.97150405E-03
 -5.31610899E-04  1.25486310E+00 -6.35718015E-01 -1.39705354E-02  4.11595642E-02
  3.43097166E-01 -2.07882747E-01  1.00349213E-01 -5.71874753E-02 -2.17207313E-02
 -2.12294274E-01 -3.27866814E-02  4.85591347E-02  8.78046816E-01 -5.76677947E-01
 -3.05282194E-02 -5.38494296E-01  8.21686153E-01  7.16631621E-02  1.00667952E+00
  2.95190899E-02  2.20377300E-03  6.29881640E-03  2.73119532E-03 -9.41317428E-05
 -5.56980086E-01 -4.12880204E-01  2.69294202E-02  3.51660623E-02  3.11940338E-01
 -3.68033315E-01  6.02261218E-02  1.91796496E-01 -6.51111840E-03  3.74491773E-02
  8.75792945E-12  2.81131403E-14  9.26306194E-10 -5.34772590E-02 -9.39529286E-01
  1.10532856E-01  5.91064576E-02  1.03842736E+00 -1.22167921E-01  1.54145918E-03
 -6.46778346E-04 -7.44766797E-03  1.09916562E-03  1.78111606E-03 -1.13130287E-09
 -1.67184558E-09 -7.54685806E-03 -1.32588957E-01  1.55987016E-02  6.39706749E-10
  1.17174580E-09  4.35148660E-03  7.64502395E-02 -8.99414552E-03  1.80657945E-02
 -1.38827990E-02  1.21045177E-02  5.45123271E-01 -8.31506432E-02 -4.43042627E-01
 -1.21170179E+00  2.25420107E-01  1.32983356E+00  3.95221005E-02  8.13337657E-03
  6.66419167E-03 -8.54997111E-03  1.89168567E-03 -3.37176387E-01 -8.40322736E-01
 -7.32171207E-02  4.04183021E-02  3.08132154E-01  5.27455359E-01  7.89687187E-01
 -3.33265234E-01  4.40437884E-02  2.13134072E-01  1.74079294E-13 -1.35314348E-10
  2.30410610E-10  1.03902252E-02  1.82543402E-01 -2.14756943E-02 -9.50313680E-03
 -1.66958356E-01  1.96421596E-02  1.80046712E-02 -1.45801199E-02 -8.65909452E-02
  1.96366865E-02  8.03277937E-02 -3.18907773E-11 -7.97088657E-11 -3.47373218E-02
 -6.10291771E-01  7.17990320E-02 -4.78920963E-11 -9.31639096E-12  4.12107441E-02
  7.24021792E-01 -8.51790343E-02  2.76509816E-02 -7.49557121E-01  1.16378874E+00
  9.06798006E-02  7.38693684E-03  1.06661051E-01 -4.29709432E-01 -1.28633481E-02
 -3.17237569E-01  4.74164813E-03  7.30635044E-02  4.78851618E-03  6.73266999E-02
  9.02199286E-04  1.40405490E-01 -3.35096357E-01  6.06219724E-01 -8.26420360E-03
  2.23051394E-01  1.06402542E-01 -2.76246725E-01  4.43965326E-01  2.79049405E-02
  4.51988296E-01 -6.81010345E-13 -8.87320634E-11  1.77205865E-10 -5.96930570E-03
 -1.04873316E-01  1.23380372E-02 -3.45836816E-02 -6.07592504E-01  7.14814711E-02
 -1.68007434E-02 -1.04744804E-02  8.21714180E-02  4.97649010E-03  1.29057556E-01
 -4.09439390E-11 -1.58914833E-11  4.83811892E-02  8.49997641E-01 -9.99997225E-02
 -7.74284946E-11 -3.91104711E-11  4.07961798E-02  7.16738409E-01 -8.43221659E-02
 -1.78020134E-02 -1.26246399E+00  2.59647236E+00  7.18371280E-02  4.02971957E-03
  6.90083698E-02  3.78851067E-01  8.87660588E-02  9.37804660E-01 -4.79578212E-02
 -5.35396093E-02 -2.12835482E-02 -1.20810204E-01  7.62127784E-03 -1.06962563E+00
 -4.68310091E-01  5.02043522E-02  2.10695855E-02  2.03381007E-01 -4.01024077E-01
 -2.13819589E-01 -1.16755645E-01 -8.12417331E-02 -7.47042657E-01 -8.15853511E-04
 -7.49297845E-01  1.27711190E+00 -9.87835484E-03  2.15370474E-02  1.78285624E-01
  8.71705625E-01 -1.14856877E-01 -5.54540734E-01 -1.69329955E-03 -1.64833541E-02
 -9.09200068E-03 -8.08361160E-02  7.34772524E-03  6.18948867E-02 -8.79553866E-02
 -9.20319810E-01  6.76363148E-02  1.29645772E-01 -7.35860858E-01 -2.33081181E-01
  2.26620825E-01  3.81372515E-02  4.33808793E-01 -4.09356998E-02  4.30818798E-01
  6.62756112E-01  6.60412161E-01 -6.51189063E-02 -2.33994561E-01  3.26888056E-01
 -3.47271686E-02 -1.37028165E-01 -1.03264012E-02  4.56441606E-02 -2.66056277E-02
 -1.81551639E-01  2.63008215E-02 -1.26665461E-01  1.24039894E-01 -2.38368234E-01
  1.93467837E-02  4.91219549E-02 -5.96066166E-01 -3.77139197E-01  1.16928885E+00
 -1.24391922E-01 -4.91613918E-01  4.13488362E-03  8.01083806E-01  4.14503826E-01
 -1.48160773E-02  9.89928228E-02  8.34270779E-01 -2.39105340E-02  2.03524543E-02
  1.61427629E-01 -2.70006667E-01 -2.02265605E-02 -6.49721807E-02 -8.62904576E-02
  7.90425938E-03 -7.44439443E-01 -2.86134815E-01  3.01669605E-02  1.54899466E-01
  1.33124064E+00 -3.77048626E-02  1.25486305E-01 -8.32525344E-02 -2.54330342E-03
 -6.18967571E-02 -1.63050738E-12  4.66105094E-12 -2.67448227E-11 -7.61165288E-05
 -1.33727278E-03  1.57326193E-04  1.54610542E-02  2.71631595E-01 -3.19566583E-02
 -4.87131469E-02 -1.03263877E-01  2.42402090E-01  8.49628338E-02  9.91785106E-01
  2.81959715E-11  8.56459974E-12 -1.41062950E-02 -2.47830152E-01  2.91564885E-02
 -1.75793393E-11  1.09965478E-12 -2.54473679E-02 -4.47078772E-01  5.25975026E-02
 -3.49111386E-11 -1.70327625E-10  1.34939267E-09  2.27894749E-03  4.00382849E-02
 -4.71038639E-03  9.11048514E-03  1.60059937E-01 -1.88305805E-02 -2.16020719E-01
  8.94083211E-02  1.04378939E+00 -1.52845925E-01 -2.39172790E-01 -6.52516024E-10
 -7.90740205E-11 -3.36774233E-02 -5.91670650E-01  6.96083120E-02 -7.81031333E-10
 -1.72639897E-10  1.15227532E-02  2.02440515E-01 -2.38165320E-02 -2.40249761E-02
 -1.07374885E-01  9.20393607E-01  1.20158893E-01  5.44132172E-04  6.27595866E-02
  6.31333752E-01 -1.07620035E-02  2.13970597E-01 -3.74706416E-02  7.26916846E-01
  4.35737163E-02  7.81629098E-01 -3.76376285E-03 -4.34726563E-01 -5.07942250E-02
 -5.54298764E-01  5.38963785E-02  1.89942132E-01 -5.47668198E-01 -1.21018624E-01
  1.09601589E-01 -6.50615186E-02 -4.99996207E-01 -4.64668438E-02 -5.85598623E-02
  1.68794955E+00  3.19726102E-01 -1.32604369E-02  4.19740056E-02  7.15715255E-01
 -6.15818946E-02 -1.77173591E-01  8.60823337E-02 -9.45736861E-01  1.66026834E-01
  7.73590611E-01 -2.01090755E-01 -5.10514494E-01 -1.20294249E-02  1.84171638E-01
  2.63952261E-02  3.13464098E-01 -1.34595139E+00 -2.77023406E-01  9.43585783E-01
 -9.55090669E-02 -3.55307779E-01  1.58311389E-02 -2.19875617E-01 -1.53836644E+00
  2.91049461E-02 -7.99015624E-02 -6.65081922E-01  1.84880747E-01 -1.55662384E-01
 -1.23368251E+00 -1.25829962E+00 -1.07511906E-01 -2.38253479E-01  1.28829798E-01
 -2.58023981E-02  2.16527304E+00  3.79676795E-01 -2.60873369E-03 -1.42660180E-01
 -1.21387367E+00 -2.14430340E-01 -1.54375263E-01  1.43153776E-01 -1.76712848E-02
 -8.09462288E-02
Total SCF Density                          R   N=         300
  2.08097670E+00 -1.65374103E-01  4.20621437E-01 -1.92417578E-01  4.03078755E-01
  4.74787804E-01  3.64573901E-02 -7.58776994E-02 -2.36240898E-01  5.79483023E-01
  4.76697033E-04 -1.08031730E-03 -1.15421899E-02  2.14658770E-02  7.85892913E-01
  2.16904918E-02 -4.58933299E-02 -2.12405082E-01  8.01465832E-02 -3.26499184E-02
  5.52207570E-01  4.15124469E-02 -9.30996118E-02 -2.05969452E-01  3.71523691E-01
  2.67936002E-02  1.05949603E-01  2.48140439E-01  1.78546332E-03 -3.88327827E-03
 -8.01714190E-03  2.72526391E-02  6.15990876E-01 -4.86488064E-02  2.55013863E-02
  4.84148202E-01  3.52607089E-02 -7.80506879E-02 -1.67796448E-01  1.09851434E-01
 -4.88708955E-02  2.61010428E-01  9.92016466E-02 -4.69822955E-02  1.39772607E-01
 -8.81284582E-04  3.18670354E-03 -1.37394401E-03 -7.11934220E-03  1.72615121E-04
  2.17036058E-02 -2.60986009E-03 -1.05492475E-03  8.43069935E-03  1.07780905E-03
  1.88978031E-03 -4.50460725E-03 -9.78543268E-03  6.20254425E-03  2.04392687E-04
  1.53681785E-02  5.73402531E-03 -3.65527227E-04  8.04352573E-03  5.09359269E-04
  4.75009331E-04 -1.84381589E-04  7.04374719E-04 -3.93994812E-04  1.05919039E-03
  1.37509179E-02  1.80914899E-03  1.04394445E-03  1.06788850E-02  1.94884696E-04
  9.95992099E-05  6.58743785E-05  2.53355791E-04  9.02081025E-04 -1.81334752E-03
 -5.68581222E-03  1.75431631E-02 -7.91039329E-04 -1.25054639E-03  1.08167224E-02
 -1.35514144E-04  1.70614349E-03 -3.71626820E-04  8.55542810E-05 -8.37691638E-06
  5.59844344E-04  1.21263188E-04 -3.29308868E-04 -5.02954727E-04 -2.95901393E-04
  1.72870584E-02 -8.66066386E-05  2.08774298E-04  1.35052191E-02 -8.47336696E-04
  4.10809153E-05  1.85537830E-05  3.03854623E-04 -4.60439504E-05  3.82603534E-04
 -7.14893246E-02  1.44620598E-01  1.21838690E-03  2.39284288E-02  4.97434614E-02
  4.34396312E-01  4.28311060E-02  1.82913182E-02  1.76198460E-01  1.95803074E-02
  1.07256436E-02  3.14621258E-03 -2.26662697E-03  1.50367299E-03  4.28051901E-01
  1.69646943E-04  1.22157025E-03 -1.26260271E-02 -1.68963818E-02  8.56973109E-03
  6.46680211E-02 -4.12768180E-03  3.31733143E-03  2.62002902E-02  3.08176499E-03
  1.60920343E-03  4.23277529E-04 -9.94047058E-04  3.00618300E-04  5.54868063E-02
  9.05457592E-03  2.29013130E-04 -6.21427055E-04 -1.10832931E-02  3.34359240E-02
  1.42132947E-03  7.42095291E-03  2.13321320E-02  1.55651278E-03  7.13170441E-03
 -2.56609372E-04  4.06853909E-04  8.54554223E-05  9.94774974E-04 -1.26554307E-05
  5.34654442E-03 -5.89528675E-04  1.98196304E-03  2.25825291E-03 -4.19712676E-03
 -1.58270196E-03  4.31287185E-04  4.17663665E-02 -1.08591249E-02  5.29762174E-04
  3.31729997E-02 -6.24213166E-03 -4.06012572E-04 -2.07048224E-04  6.80393763E-04
 -3.82468748E-06  9.11525602E-04 -6.71697658E-03 -6.91398385E-04 -5.89908995E-05
  2.42870419E-03  1.93059493E-02 -3.59762320E-02 -1.88152103E-02 -9.94406577E-04
 -1.03801293E-02 -4.56437474E-02 -1.59567579E-03 -5.74537612E-03 -1.56701844E-02
 -2.28581056E-03 -9.84254630E-04 -4.69104920E-04  2.84641903E-04 -2.56127733E-04
 -5.45075720E-02 -6.16210805E-03 -6.77126234E-04  6.81864150E-04  7.81336980E-03
 -5.05765793E-02  1.06749665E-01  4.27450704E-02  3.59660508E-01 -3.70353777E-02
 -1.40792200E-01  1.95892658E-01 -1.49045193E-02 -3.19129579E-02 -1.12701048E-02
 -2.28334708E-03 -7.06017680E-04  1.24019010E-02 -1.68116055E-03 -8.21244573E-02
 -3.39987516E-02  2.11041722E-02 -8.58275337E-04  2.91513724E-03  3.44356068E-01
  1.48076250E-03 -1.53208386E-03 -1.35562470E-02  9.36107220E-02 -1.01643148E-02
 -4.11065793E-02  5.34827619E-02 -3.84876396E-03 -6.83883357E-03 -3.39308194E-03
 -5.16100642E-04 -2.81591810E-04  3.24245428E-03 -4.29338851E-04 -3.78001338E-02
 -9.66168836E-03  5.18311442E-03  1.74531181E-04  3.99117387E-03  8.09976432E-02
  2.10251545E-02  1.39361100E-02 -2.72918238E-02 -2.37898551E-02 -2.98857129E-02
  6.81942364E-03  2.57622327E-02 -1.30085201E-02  3.66348156E-03  1.08639873E-02
  1.37777381E-03  6.89874700E-04  1.43141648E-04 -1.14647918E-03  2.56967410E-04
  1.09247890E-02  4.50242287E-03 -1.84810286E-03  2.39729106E-04  1.77392361E-04
 -4.00115421E-02 -8.54514873E-03  5.41789438E-03 -1.59095654E-03  3.10262701E-03
  1.21185228E-03  7.84074036E-03  3.57601864E-02 -3.98095006E-03  4.87942061E-03
  2.82791697E-02 -2.91121930E-03 -1.87128491E-04 -3.58528240E-05  6.28170610E-04
  1.98509484E-04  7.69414084E-04  1.40768841E-03 -2.13325290E-04  4.79690706E-04
  1.90455390E-03 -5.53594494E-04  5.15292556E-03  1.06816934E-03 -5.14730258E-04
  1.76663134E-03 -6.78065614E-03  1.31681841E-02 -1.20910211E-03  3.44434253E-02
 -4.47507666E-03  1.53008558E-02  2.11994693E-02 -3.49950673E-03  9.41017556E-03
  1.74018180E-04  5.21908875E-04  4.92398600E-05  9.92881354E-04 -1.46306459E-04
  1.72509090E-02  3.65066839E-04  2.21706599E-03 -6.69691096E-04 -2.62274216E-03
  2.44417532E-02  4.94518280E-03 -2.57669608E-03  3.12845899E-04  3.11307837E-03
Dipole Moment                              R   N=           3
  6.46132274E-01  3.28892045E-03  3.40563176E-01
Mulliken Charges                           R   N=           3
 -2.85130175E-01  1.03200806E-01  1.81929370E-01
