
  **** **** ******  **  PROGRAM STARTED AT               2016-05-11 12:03:17.252
 ***** ** ***  *** **   PROGRAM STARTED ON                              molmod55
 **    ****   ******    PROGRAM STARTED BY                                  toon
 ***** **    ** ** **   PROGRAM PROCESS ID                                  8003
  **** **  *******  **  PROGRAM STARTED IN /home/toon/univ/collaboration/mathieu
                                           _salanne/ean/wannier_hirshfeld_test/p
                                           be_molopt_sv_sr/atoms/testing

 CP2K| version string:                                          CP2K version 2.6
 CP2K| source code revision number:                                    svn:15177
 CP2K| is freely available from                             http://www.cp2k.org/
 CP2K| Program compiled at                          Sun Aug 16 19:48:04 UTC 2015
 CP2K| Program compiled on                     buildvm-23.phx2.fedoraproject.org
 CP2K| Program compiled for                                Linux-x86-64-gfortran
 CP2K| Input file name                             carbon_gs_ae_uncontracted.inp

 GLOBAL| Method name                                                        ATOM
 GLOBAL| Project name                                                          C
 GLOBAL| Preferred FFT library                                             FFTW3
 GLOBAL| Preferred diagonalization lib.                                       SL
 GLOBAL| Run type                                                   ENERGY_FORCE
 GLOBAL| All-to-all communication in single precision                          F
 GLOBAL| FFTs using library dependent lengths                                  F
 GLOBAL| Global print level                                               MEDIUM
 GLOBAL| Total number of message passing processes                             1
 GLOBAL| Number of threads for this process                                    4
 GLOBAL| This output is from process                                           0

 MEMORY| system memory details [Kb]
 MEMORY|                        rank 0           min           max       average
 MEMORY| MemTotal              7868376       7868376       7868376       7868376
 MEMORY| MemFree               4054652       4054652       4054652       4054652
 MEMORY| Buffers                168144        168144        168144        168144
 MEMORY| Cached                1630868       1630868       1630868       1630868
 MEMORY| Slab                   172204        172204        172204        172204
 MEMORY| SReclaimable           109228        109228        109228        109228
 MEMORY| MemLikelyFree         5962892       5962892       5962892       5962892


 *** Fundamental physical constants (SI units) ***

 *** Literature: B. J. Mohr and B. N. Taylor,
 ***             CODATA recommended values of the fundamental physical
 ***             constants: 2006, Web Version 5.1
 ***             http://physics.nist.gov/constants

 Speed of light in vacuum [m/s]                             2.99792458000000E+08
 Magnetic constant or permeability of vacuum [N/A**2]       1.25663706143592E-06
 Electric constant or permittivity of vacuum [F/m]          8.85418781762039E-12
 Planck constant (h) [J*s]                                  6.62606896000000E-34
 Planck constant (h-bar) [J*s]                              1.05457162825177E-34
 Elementary charge [C]                                      1.60217648700000E-19
 Electron mass [kg]                                         9.10938215000000E-31
 Electron g factor [ ]                                     -2.00231930436220E+00
 Proton mass [kg]                                           1.67262163700000E-27
 Fine-structure constant                                    7.29735253760000E-03
 Rydberg constant [1/m]                                     1.09737315685270E+07
 Avogadro constant [1/mol]                                  6.02214179000000E+23
 Boltzmann constant [J/K]                                   1.38065040000000E-23
 Atomic mass unit [kg]                                      1.66053878200000E-27
 Bohr radius [m]                                            5.29177208590000E-11

 *** Conversion factors ***

 [u] -> [a.u.]                                              1.82288848426455E+03
 [Angstrom] -> [Bohr] = [a.u.]                              1.88972613288564E+00
 [a.u.] = [Bohr] -> [Angstrom]                              5.29177208590000E-01
 [a.u.] -> [s]                                              2.41888432650478E-17
 [a.u.] -> [fs]                                             2.41888432650478E-02
 [a.u.] -> [J]                                              4.35974393937059E-18
 [a.u.] -> [N]                                              8.23872205491840E-08
 [a.u.] -> [K]                                              3.15774647902944E+05
 [a.u.] -> [kJ/mol]                                         2.62549961709828E+03
 [a.u.] -> [kcal/mol]                                       6.27509468713739E+02
 [a.u.] -> [Pa]                                             2.94210107994716E+13
 [a.u.] -> [bar]                                            2.94210107994716E+08
 [a.u.] -> [atm]                                            2.90362800883016E+08
 [a.u.] -> [eV]                                             2.72113838565563E+01
 [a.u.] -> [Hz]                                             6.57968392072181E+15
 [a.u.] -> [1/cm] (wave numbers)                            2.19474631370540E+05
 [a.u./Bohr**2] -> [1/cm]                                   5.14048714338585E+03

 DBCSR| Multiplication driver                                                SMM
 DBCSR| Multrec recursion limit                                              512
 DBCSR| Multiplication stack size                                           1000
 DBCSR| Multiplication size stacks                                             3



                           ****  ******  ****   ****
                          **  ** ****** **  ** ******
                          ******   **   **  ** **  **
                          **  **   **    ****  **  **

                             University of Zurich
                                 2009 - 2014

                                 Version 0.0



 Atomic Energy Calculation             Carbon [C]            Atomic number:    6


 All Electron Basis

 ********************* Uncontracted Gaussian Type Orbitals *********************

 s Exponents:                    1                                    0.00729900
                                 2                                    0.01370500
                                 3                                    0.02573300
                                 4                                    0.04831600
                                 5                                    0.09071800
                                 6                                    0.17033300
                                 7                                    0.31981900
                                 8                                    0.60049600
                                 9                                    1.12749700
                                10                                    2.11700000
                                11                                    3.97490200
                                12                                    7.46331700
                                13                                   14.01320400
                                14                                   26.31133900
                                15                                   49.40244900
                                16                                   92.75856100
                                17                                  174.16445600
                                18                                  327.01302400
                                19                                  614.00311400
                                20                                 1152.85874300
                                21                                 2164.61977200
                                22                                 4064.31298400
                                23                                 7631.19705600
                                24                                14328.41632400
                                25                                26903.18607400
                                26                                50513.70678900
                                27                                94845.07026500
                                28                               178082.10732000
                                29                               334368.84868300
                                30                               627814.48766300
                                31                              1178791.12385100
                                32                              2213310.68488600
                                33                              4155735.55714100
                                34                              7802853.04671300
                                35                             14650719.42895400
                                36                             27508345.79363700
                                37                             51649961.08019400
                                38                             96978513.34276401
                                39                            182087882.61370200
                                40                            341890134.75133097

 p Exponents:                    1                                    0.00729900
                                 2                                    0.01370500
                                 3                                    0.02573300
                                 4                                    0.04831600
                                 5                                    0.09071800
                                 6                                    0.17033300
                                 7                                    0.31981900
                                 8                                    0.60049600
                                 9                                    1.12749700
                                10                                    2.11700000
                                11                                    3.97490200
                                12                                    7.46331700
                                13                                   14.01320400
                                14                                   26.31133900
                                15                                   49.40244900
                                16                                   92.75856100
                                17                                  174.16445600
                                18                                  327.01302400
                                19                                  614.00311400
                                20                                 1152.85874300
                                21                                 2164.61977200
                                22                                 4064.31298400
                                23                                 7631.19705600
                                24                                14328.41632400
                                25                                26903.18607400
                                26                                50513.70678900
                                27                                94845.07026500
                                28                               178082.10732000
                                29                               334368.84868300
                                30                               627814.48766300
                                31                              1178791.12385100
                                32                              2213310.68488600
                                33                              4155735.55714100
                                34                              7802853.04671300
                                35                             14650719.42895400
                                36                             27508345.79363700
                                37                             51649961.08019400
                                38                             96978513.34276401
                                39                            182087882.61370200
                                40                            341890134.75133097

 d Exponents:                    1                                    0.00729900
                                 2                                    0.01370500
                                 3                                    0.02573300
                                 4                                    0.04831600
                                 5                                    0.09071800
                                 6                                    0.17033300
                                 7                                    0.31981900
                                 8                                    0.60049600
                                 9                                    1.12749700
                                10                                    2.11700000
                                11                                    3.97490200
                                12                                    7.46331700
                                13                                   14.01320400
                                14                                   26.31133900
                                15                                   49.40244900
                                16                                   92.75856100
                                17                                  174.16445600
                                18                                  327.01302400
                                19                                  614.00311400
                                20                                 1152.85874300
                                21                                 2164.61977200
                                22                                 4064.31298400
                                23                                 7631.19705600
                                24                                14328.41632400
                                25                                26903.18607400
                                26                                50513.70678900
                                27                                94845.07026500
                                28                               178082.10732000
                                29                               334368.84868300
                                30                               627814.48766300
                                31                              1178791.12385100
                                32                              2213310.68488600
                                33                              4155735.55714100
                                34                              7802853.04671300
                                35                             14650719.42895400
                                36                             27508345.79363700
                                37                             51649961.08019400
                                38                             96978513.34276401
                                39                            182087882.61370200
                                40                            341890134.75133097

 f Exponents:                    1                                    0.00729900
                                 2                                    0.01370500
                                 3                                    0.02573300
                                 4                                    0.04831600
                                 5                                    0.09071800
                                 6                                    0.17033300
                                 7                                    0.31981900
                                 8                                    0.60049600
                                 9                                    1.12749700
                                10                                    2.11700000
                                11                                    3.97490200
                                12                                    7.46331700
                                13                                   14.01320400
                                14                                   26.31133900
                                15                                   49.40244900
                                16                                   92.75856100
                                17                                  174.16445600
                                18                                  327.01302400
                                19                                  614.00311400
                                20                                 1152.85874300
                                21                                 2164.61977200
                                22                                 4064.31298400
                                23                                 7631.19705600
                                24                                14328.41632400
                                25                                26903.18607400
                                26                                50513.70678900
                                27                                94845.07026500
                                28                               178082.10732000
                                29                               334368.84868300
                                30                               627814.48766300
                                31                              1178791.12385100
                                32                              2213310.68488600
                                33                              4155735.55714100
                                34                              7802853.04671300
                                35                             14650719.42895400
                                36                             27508345.79363700
                                37                             51649961.08019400
                                38                             96978513.34276401
                                39                            182087882.61370200
                                40                            341890134.75133097
 *******************************************************************************

 Pseudopotential Basis

 ********************* Uncontracted Gaussian Type Orbitals *********************

 s Exponents:                    1                                    0.00729900
                                 2                                    0.01370500
                                 3                                    0.02573300
                                 4                                    0.04831600
                                 5                                    0.09071800
                                 6                                    0.17033300
                                 7                                    0.31981900
                                 8                                    0.60049600
                                 9                                    1.12749700
                                10                                    2.11700000
                                11                                    3.97490200
                                12                                    7.46331700
                                13                                   14.01320400
                                14                                   26.31133900
                                15                                   49.40244900
                                16                                   92.75856100

 p Exponents:                    1                                    0.00729900
                                 2                                    0.01370500
                                 3                                    0.02573300
                                 4                                    0.04831600
                                 5                                    0.09071800
                                 6                                    0.17033300
                                 7                                    0.31981900
                                 8                                    0.60049600
                                 9                                    1.12749700
                                10                                    2.11700000
                                11                                    3.97490200
                                12                                    7.46331700
                                13                                   14.01320400
                                14                                   26.31133900
                                15                                   49.40244900
                                16                                   92.75856100

 d Exponents:                    1                                    0.00729900
                                 2                                    0.01370500
                                 3                                    0.02573300
                                 4                                    0.04831600
                                 5                                    0.09071800
                                 6                                    0.17033300
                                 7                                    0.31981900
                                 8                                    0.60049600
                                 9                                    1.12749700
                                10                                    2.11700000
                                11                                    3.97490200
                                12                                    7.46331700
                                13                                   14.01320400
                                14                                   26.31133900
                                15                                   49.40244900
                                16                                   92.75856100

 f Exponents:                    1                                    0.00729900
                                 2                                    0.01370500
                                 3                                    0.02573300
                                 4                                    0.04831600
                                 5                                    0.09071800
                                 6                                    0.17033300
                                 7                                    0.31981900
                                 8                                    0.60049600
                                 9                                    1.12749700
                                10                                    2.11700000
                                11                                    3.97490200
                                12                                    7.46331700
                                13                                   14.01320400
                                14                                   26.31133900
                                15                                   49.40244900
                                16                                   92.75856100
 *******************************************************************************

 METHOD    | Unrestricted Kohn-Sham Calculation
 METHOD    | Nonrelativistic Calculation
 FUNCTIONAL| ROUTINE=NEW
 FUNCTIONAL| BECKE88:
 FUNCTIONAL| A. Becke, Phys. Rev. A 38, 3098 (1988) {LSD version}
 FUNCTIONAL| LYP:
 FUNCTIONAL| C. Lee, W. Yang, R.G. Parr, Phys. Rev. B, 37, 785 (1988) {LSD versi
 FUNCTIONAL| on}

 **************************** All Electron Potential ***************************
 *******************************************************************************

 Electronic structure
    Total number of core electrons                                          0.00
    Total number of valence electrons                                       6.00
    Total number of electrons                                               6.00
    Multiplicity                                                         triplet
    Alpha Electrons
    S      1.00  1.00
    P      2.00
    Beta Electrons
    S      1.00  1.00
    P      0.00


 *******************************************************************************
                  Iteration          Convergence                     Energy [au]
 *******************************************************************************
                          1        0.387861                     -37.683062571141
                          2        0.276996                     -37.700486762175
                          3        0.466586E-01                 -37.838841244909
                          4        0.312104E-02                 -37.842536225376
                          5        0.774159E-03                 -37.842550503049
                          6        0.458858E-03                 -37.842552206159
                          7        0.182799E-03                 -37.842552705521
                          8        0.405114E-04                 -37.842552739273
                          9        0.536989E-04                 -37.842552739049
                         10        0.103707E-04                 -37.842552743107
                         11        0.120595E-04                 -37.842552743127
                         12        0.862052E-05                 -37.842552743206
                         13        0.558329E-05                 -37.842552743323
                         14        0.365044E-05                 -37.842552743359
                         15        0.297628E-05                 -37.842552743386
                         16        0.246540E-05                 -37.842552743390
                         17        0.849362E-06                 -37.842552743398

 Energy components [Hartree]           Total Energy ::          -37.842552743398
                                        Band Energy ::          -21.472544304311
                                     Kinetic Energy ::           37.738468195679
                                   Potential Energy ::          -75.581020939077
                                      Virial (-V/T) ::            2.002758049086
                                        Core Energy ::          -50.459758412884
                                          XC Energy ::           -5.189183050597
                                     Coulomb Energy ::           17.806388720084

 Orbital energies  State     Spin  L     Occupation   Energy[a.u.]    Energy[eV]

                       1    alpha  0          1.000     -10.050076   -273.476471
                       2    alpha  0          1.000      -0.528162    -14.372022
                       1     beta  0          1.000     -10.022715   -272.731952
                       2     beta  0          1.000      -0.436340    -11.873403

                       1    alpha  1          2.000      -0.217626     -5.921898
                       1     beta  1          0.000      -0.137135     -3.731645


 Atomic orbital expansion coefficients [Alpha]

    ORBITAL      L = 0      State =   1
       -2.076122394172432E-06
        1.399034141581854E-05
       -5.238275473407224E-05
        1.497465576402500E-04
       -3.710404520642752E-04
        8.445430760930576E-04
       -1.808569217289192E-03
        4.595852934751175E-03
        5.022687319829023E-02
        5.613377689169173E-01
        1.737235041110740E+00
        3.193525544081005E+00
        3.900853501430625E+00
        3.904942075920414E+00
        3.440561559504013E+00
        2.762898305793302E+00
        2.143866798461183E+00
        1.589518213549921E+00
        1.190740575926516E+00
        8.621203636513800E-01
        6.428011152210286E-01
        4.598041161360091E-01
        3.453917884043949E-01
        2.431875156864764E-01
        1.858935892284562E-01
        1.287365799345432E-01
        9.816461002888126E-02
        7.127320800311386E-02
        4.914098167915431E-02
        3.894451037414579E-02
        2.835982375813281E-02
        1.854894963956203E-02
        1.382395448086025E-02
        1.159494192263838E-02
        8.972313712921561E-03
        5.930191767580083E-03
        3.380658127049523E-03
        1.713857778498538E-03
        7.961727172254283E-04
        3.474154142820386E-04

    ORBITAL      L = 0      State =   2
       -7.065073080257667E-06
        4.521278465037526E-05
       -1.723324584837795E-04
       -2.321986704684421E-03
       -4.493313645779190E-02
       -2.000082950671052E-01
       -4.139181873572154E-01
       -4.907964933712793E-01
       -2.111339695529420E-01
        3.524568360812264E-01
        8.533181637582838E-01
        9.724680855090626E-01
        1.194971409042026E+00
        9.531067934863452E-01
        8.800455761462470E-01
        6.308729841709598E-01
        5.228379946142793E-01
        3.532766259138196E-01
        2.883368278768476E-01
        1.886287487686314E-01
        1.563310455366679E-01
        9.961711963872803E-02
        8.405396622236451E-02
        5.311165582595891E-02
        4.410337498392485E-02
        2.960526662018483E-02
        2.183042822831657E-02
        1.723550782817227E-02
        1.101383660898354E-02
        8.681343015076799E-03
        6.820200677771614E-03
        4.377455953463297E-03
        3.018779863585362E-03
        2.549108734796060E-03
        2.088992304533992E-03
        1.456647190588279E-03
        8.636253870691716E-04
        4.498311580568507E-04
        2.128047340033405E-04
        9.397307095841456E-05

    ORBITAL      L = 1      State =   1
       -1.049688291341168E-07
       -3.965633333043758E-07
       -1.830360934913051E-04
       -3.037293965443818E-03
       -1.990085166279440E-02
       -7.344880606675032E-02
       -1.821015989419555E-01
       -3.729642247053905E-01
       -5.766944266502065E-01
       -7.352042901454473E-01
       -6.895137029982946E-01
       -8.601870037483679E-01
       -6.425725382699563E-01
       -5.664655188437692E-01
       -4.826023711711548E-01
       -3.064539088798933E-01
       -3.098144434563383E-01
       -1.369436558694840E-01
       -1.944217776164716E-01
       -5.623710352248855E-02
       -1.035503508928143E-01
       -5.154385522466347E-02
       -2.473204064552389E-02
       -3.762125533156317E-02
       -3.092934527744213E-02
       -1.529929859534097E-02
       -5.498707950910973E-03
       -1.608078948072721E-03
       -4.113787083989715E-04
       -9.662429563731560E-05
       -2.152440906329200E-05
       -4.644905594446097E-06
       -9.840116935879306E-07
       -2.062921934579803E-07
       -4.299793593192737E-08
       -8.933814382290094E-09
       -1.853028932803004E-09
       -3.839967515834657E-10
       -7.953508916275455E-11
       -1.646931775177922E-11

 Atomic orbital expansion coefficients [Beta]

    ORBITAL      L = 0      State =   1
        2.022775415751101E-06
       -1.363184775417714E-05
        5.104754128536042E-05
       -1.459967396838128E-04
        3.622860671145125E-04
       -8.285784590140989E-04
        1.801469239530546E-03
       -2.888984284611278E-03
        6.320377099622013E-02
        5.231857706076981E-01
        1.782986299658945E+00
        3.167257922467936E+00
        3.909685497626374E+00
        3.954696703542547E+00
        3.388970320620631E+00
        2.823580466684222E+00
        2.098029652272016E+00
        1.633692661829983E+00
        1.158114014343292E+00
        8.916168637064839E-01
        6.213178069988710E-01
        4.778835303655894E-01
        3.333768160088604E-01
        2.515317249496844E-01
        1.825085121177618E-01
        1.290331761027652E-01
        1.004049180402771E-01
        6.909121180709711E-02
        5.003692894036546E-02
        3.977747960359344E-02
        2.759499757237308E-02
        1.828024372353331E-02
        1.429394185340192E-02
        1.194124433318678E-02
        8.919541059129520E-03
        5.686376077493244E-03
        3.150299220157229E-03
        1.564067637070196E-03
        7.160467430377516E-04
        3.093902454634562E-04

    ORBITAL      L = 0      State =   2
        3.894122579769892E-05
       -2.466816997162818E-04
        9.248311124681746E-04
        3.622328745728506E-03
        6.525136367558745E-02
        2.024005619752940E-01
        3.865496988731446E-01
        4.331033419848818E-01
        2.276141853867313E-01
       -3.862047916694253E-01
       -7.138908183264484E-01
       -1.027911863897117E+00
       -1.122144026823738E+00
       -9.166407006713387E-01
       -8.676869963069840E-01
       -5.851267457765804E-01
       -5.261527285607838E-01
       -3.210862075213639E-01
       -2.943232621934622E-01
       -1.683122503575178E-01
       -1.615117936483475E-01
       -8.763300459677231E-02
       -8.708315403558693E-02
       -4.733610519797545E-02
       -4.429081188028543E-02
       -2.848224855091160E-02
       -2.003664165409063E-02
       -1.771822428363521E-02
       -1.021932338656572E-02
       -7.995500396514223E-03
       -6.963885705752696E-03
       -4.362404534713238E-03
       -2.693272335633852E-03
       -2.298719739692266E-03
       -2.045691983512844E-03
       -1.525991080774054E-03
       -9.459847133383142E-04
       -5.070540049938841E-04
       -2.443274159906285E-04
       -1.091628768840897E-04

    ORBITAL      L = 1      State =   1
       -4.963926714330680E-06
        1.023574126686851E-05
       -8.475761292291406E-04
       -5.898151446907422E-03
       -2.714509422894170E-02
       -7.405614927299865E-02
       -1.640177622490774E-01
       -3.297534817467361E-01
       -5.246787462918223E-01
       -6.487412005366708E-01
       -6.828517348943924E-01
       -8.459270233135535E-01
       -4.284024132242490E-01
       -7.915068160880688E-01
       -1.156209069936273E-01
       -6.576642219826851E-01
        1.169885426277456E-01
       -5.436430383962234E-01
        2.179771288165369E-01
       -3.743736895299385E-01
        7.610995356360258E-02
       -2.887901750619360E-02
       -1.428568875193499E-01
       -1.363641634760838E-02
        4.917502417371724E-02
        3.557917197318446E-02
        1.469422030543334E-02
        4.593487529610873E-03
        1.217648310078514E-03
        2.917148185459390E-04
        6.571019230697703E-05
        1.426855218599804E-05
        3.033184025681262E-06
        6.370889784559736E-07
        1.329257443885051E-07
        2.763361887373608E-08
        5.733389094197038E-09
        1.188298155225868E-09
        2.461462919505312E-10
        5.097176608808687E-11


                             NORMAL TERMINATION OF

                           ****  ******  ****   ****
                          **  ** ****** **  ** ******
                          ******   **   **  ** **  **
                          **  **   **    ****  **  **


 -------------------------------------------------------------------------------
 -                                                                             -
 -                                DBCSR STATISTICS                             -
 -                                                                             -
 -------------------------------------------------------------------------------
 COUNTER                                      CPU                  ACC      ACC%
 number of processed stacks                     0                    0       0.0
 matmuls inhomo. stacks                         0                    0       0.0
 matmuls total                                  0                    0       0.0
 flops total                                    0                    0       0.0
 marketing flops                                0
 -------------------------------------------------------------------------------

 -------------------------------------------------------------------------------
 -                                                                             -
 -                           R E F E R E N C E S                               -
 -                                                                             -
 -------------------------------------------------------------------------------

 CP2K version 2.6, the CP2K developers group (2014).
 CP2K is freely available from http://www.cp2k.org/ .

 Borstnik, U; VandeVondele, J; Weber, V; Hutter, J.
 PARALLEL COMPUTING, 40 (5-6), 47-58 (2014).
 Sparse matrix multiplication: The distributed block-compressed sparse
 row library.
 http://dx.doi.org/10.1016/j.parco.2014.03.012


 Hutter, J; Iannuzzi, M; Schiffmann, F; VandeVondele, J.
 WILEY INTERDISCIPLINARY REVIEWS-COMPUTATIONAL MOLECULAR SCIENCE, 4 (1), 15-25 (2014).
 CP2K: atomistic simulations of condensed matter systems.
 http://dx.doi.org/10.1002/wcms.1159


 Frigo, M; Johnson, SG.
 PROCEEDINGS OF THE IEEE, 93 (2), 216-231 (2005).
 The design and implementation of FFTW3.
 http://dx.doi.org/10.1109/JPROC.2004.840301


 BECKE, AD. PHYSICAL REVIEW A, 38 (6), 3098-3100 (1988).
 DENSITY-FUNCTIONAL EXCHANGE-ENERGY APPROXIMATION WITH CORRECT
 ASYMPTOTIC-BEHAVIOR.
 http://dx.doi.org/10.1103/PhysRevA.38.3098


 LEE, CT; YANG, WT; PARR, RG.
 PHYSICAL REVIEW B, 37 (2), 785-789 (1988).
 DEVELOPMENT OF THE COLLE-SALVETTI CORRELATION-ENERGY FORMULA INTO A
 FUNCTIONAL OF THE ELECTRON-DENSITY.
 http://dx.doi.org/10.1103/PhysRevB.37.785


 -------------------------------------------------------------------------------
 -                                                                             -
 -                                T I M I N G                                  -
 -                                                                             -
 -------------------------------------------------------------------------------
 SUBROUTINE                       CALLS  ASD         SELF TIME        TOTAL TIME
                                MAXIMUM       AVERAGE  MAXIMUM  AVERAGE  MAXIMUM
 CP2K                                 1  1.0    0.002    0.002    0.512    0.512
 atom_code                            1  2.0    0.000    0.000    0.509    0.509
 atom_energy_opt                      1  3.0    0.004    0.004    0.509    0.509
 calculate_atom                       1  4.0    0.000    0.000    0.496    0.496
 calculate_atom_unrestricted          1  5.0    0.086    0.086    0.496    0.496
 calculate_atom_vxc_lsd              17  6.0    0.402    0.402    0.410    0.410
 -------------------------------------------------------------------------------

  **** **** ******  **  PROGRAM ENDED AT                 2016-05-11 12:03:17.791
 ***** ** ***  *** **   PROGRAM RAN ON                                  molmod55
 **    ****   ******    PROGRAM RAN BY                                      toon
 ***** **    ** ** **   PROGRAM PROCESS ID                                  8003
  **** **  *******  **  PROGRAM STOPPED IN /home/toon/univ/collaboration/mathieu
                                           _salanne/ean/wannier_hirshfeld_test/p
                                           be_molopt_sv_sr/atoms/testing
