h_sto3g
SP        UHF                                                         STO-3G
Number of atoms                            I                1
Charge                                     I                0
Multiplicity                               I                2
Number of electrons                        I                1
Number of alpha electrons                  I                1
Number of beta electrons                   I                0
Number of basis functions                  I                1
Number of contracted shells                I                1
Highest angular momentum                   I                0
Largest degree of contraction              I                3
Number of primitive shells                 I                3
Virial Ratio                               R      1.613897736040718E+00
SCF Energy                                 R     -4.665818503844346E-01
Total Energy                               R     -4.665818503844346E-01
Atomic numbers                             I   N=           1
           1
Nuclear charges                            R   N=           1
  1.00000000E+00
Current cartesian coordinates              R   N=           3
  0.00000000E+00  0.00000000E+00  0.00000000E+00
Integer atomic weights                     I   N=           1
           1
Real atomic weights                        R   N=           1
  1.00782504E+00
Shell types                                I   N=           1
           0
Number of primitives per shell             I   N=           1
           3
Shell to atom map                          I   N=           1
           1
Primitive exponents                        R   N=           3
  3.42525091E+00  6.23913730E-01  1.68855404E-01
Contraction coefficients                   R   N=           3
  1.54328967E-01  5.35328142E-01  4.44634542E-01
Coordinates of each shell                  R   N=           3
  0.00000000E+00  0.00000000E+00  0.00000000E+00
Alpha Orbital Energies                     R   N=           1
 -4.66581850E-01
Beta Orbital Energies                      R   N=           1
  3.08024094E-01
Alpha MO coefficients                      R   N=           1
  1.00000000E+00
Beta MO coefficients                       R   N=           1
  1.00000000E+00
Total SCF Density                          R   N=           1
  1.00000000E+00
Spin SCF Density                           R   N=           1
  1.00000000E+00
Dipole Moment                              R   N=           3
  0.00000000E+00  0.00000000E+00  0.00000000E+00
