 He atom - decontracted 6-31G** Polarization basis set (o
GAUSSIAN              1 MOL ORBITALS      3 PRIMITIVES        1 NUCLEI
  He   1    (CENTRE  1)   0.00000000  0.00000000  0.00000000  CHARGE =  2.0
CENTRE ASSIGNMENTS    1  1  1
TYPE ASSIGNMENTS      2  3  4
EXPONENTS  0.1100000D+01 0.1100000D+01 0.1100000D+01
MO    1     MO 0.0        OCC NO =    2.0000000  ORB. ENERGY =    1.484945
  0.00000000D+00  0.00000000D+00  0.16057611D+01
END DATA
 TOTAL ENERGY =      2.003402746203 THE VIRIAL(-V/T)=   0.63574496
