 He atom - decontracted 6-31G basis set
GAUSSIAN              1 MOL ORBITALS      4 PRIMITIVES        1 NUCLEI
  He   1    (CENTRE  1)   0.00000000  0.00000000  0.00000000  CHARGE =  2.0
CENTRE ASSIGNMENTS    1  1  1  1
TYPE ASSIGNMENTS      1  1  1  1
EXPONENTS  0.3842163D+02 0.5778030D+01 0.1241774D+01 0.2979640D+00
MO    1     MO 0.0        OCC NO =    2.0000000  ORB. ENERGY =   -0.914127
  0.26139500D+00  0.41084277D+00  0.39372947D+00  0.14762025D+00
END DATA
 TOTAL ENERGY =     -2.855160426155 THE VIRIAL(-V/T)=   1.99994256
