 He atom - aug-cc-pvqz diffuse basis set
GAUSSIAN              1 MOL ORBITALS     20 PRIMITIVES        1 NUCLEI
  He   1    (CENTRE  1)   0.00000000  0.00000000  0.00000000  CHARGE =  2.0
CENTRE ASSIGNMENTS    1  1  1  1  1  1  1  1  1  1  1  1  1  1  1  1  1  1  1  1
TYPE ASSIGNMENTS      1  2  3  4  5  6  7  8  9 10 11 12 13 17 14 15 18 19 16 20
EXPONENTS  0.4819000D-01 0.1626000D+00 0.1626000D+00 0.1626000D+00 0.3510000D+00
EXPONENTS  0.3510000D+00 0.3510000D+00 0.3510000D+00 0.3510000D+00 0.3510000D+00
EXPONENTS  0.6906000D+00 0.6906000D+00 0.6906000D+00 0.6906000D+00 0.6906000D+00
EXPONENTS  0.6906000D+00 0.6906000D+00 0.6906000D+00 0.6906000D+00 0.6906000D+00
MO    1     MO 0.0        OCC NO =    2.0000000  ORB. ENERGY =   -0.394605
  0.50520884D-01  0.00000000D+00  0.00000000D+00  0.00000000D+00  0.45128979D-01
  0.45128979D-01  0.45128979D-01  0.00000000D+00  0.00000000D+00  0.00000000D+00
  0.00000000D+00  0.00000000D+00  0.00000000D+00  0.00000000D+00  0.00000000D+00
  0.00000000D+00  0.00000000D+00  0.00000000D+00  0.00000000D+00  0.00000000D+00
END DATA
 TOTAL ENERGY =       -1.100269433080 THE VIRIAL(-V/T)=   5.08509123
