[Molden Format]
[Title]
 This title was manually added for the tests
[Molpro variables]
_NUMVAR=  785.0000000000000
_AVOGAD= 0.6022136736000000E+24
_BOLTZ= 0.1380658000000000E-22
_LOTS_OF_USELESS_STUF_TRIMMED=yeah!
[Atoms] Angs
N     1    7        -0.0074552142        0.0447633077        0.0549133281
H     2    1         0.7912317858        0.0113343077        0.0235803281
H     3    1        -0.3132442142       -0.8795806923        0.2831263281
H     4    1        -0.3744022142        0.2462893077       -1.0696916719
[GTO]
  1 0
 s    8  1.00
  0.9046000000D+04  0.6996174134D-03
  0.1357000000D+04  0.5386054630D-02
  0.3093000000D+03  0.2739102119D-01
  0.8773000000D+02  0.1031505920D+00
  0.2856000000D+02  0.2785706633D+00
  0.1021000000D+02  0.4482948495D+00
  0.3838000000D+01  0.2780859284D+00
  0.7466000000D+00  0.1543156123D-01
 s    8  1.00
  0.9046000000D+04 -0.3049900960D-03
  0.1357000000D+04 -0.2408026379D-02
  0.3093000000D+03 -0.1194444873D-01
  0.8773000000D+02 -0.4892599291D-01
  0.2856000000D+02 -0.1344727247D+00
  0.1021000000D+02 -0.3151125777D+00
  0.3838000000D+01 -0.2428578325D+00
  0.7466000000D+00  0.1094382207D+01
 s    1  1.00
  0.2248000000D+00  0.1000000000D+01
 s    1  1.00
  0.6124000000D-01  0.1000000000D+01
 p    3  1.00
  0.1355000000D+02  0.5890567677D-01
  0.2917000000D+01  0.3204611067D+00
  0.7973000000D+00  0.7530420618D+00
 p    1  1.00
  0.2185000000D+00  0.1000000000D+01
 p    1  1.00
  0.5611000000D-01  0.1000000000D+01
 d    1  1.00
  0.8170000000D+00  0.1000000000D+01
 d    1  1.00
  0.2300000000D+00  0.1000000000D+01

  2 0
 s    3  1.00
  0.1301000000D+02  0.3349872639D-01
  0.1962000000D+01  0.2348008012D+00
  0.4446000000D+00  0.8136829579D+00
 s    1  1.00
  0.1220000000D+00  0.1000000000D+01
 s    1  1.00
  0.2974000000D-01  0.1000000000D+01
 p    1  1.00
  0.7270000000D+00  0.1000000000D+01
 p    1  1.00
  0.1410000000D+00  0.1000000000D+01

  3 0
 s    3  1.00
  0.1301000000D+02  0.3349872639D-01
  0.1962000000D+01  0.2348008012D+00
  0.4446000000D+00  0.8136829579D+00
 s    1  1.00
  0.1220000000D+00  0.1000000000D+01
 s    1  1.00
  0.2974000000D-01  0.1000000000D+01
 p    1  1.00
  0.7270000000D+00  0.1000000000D+01
 p    1  1.00
  0.1410000000D+00  0.1000000000D+01

  4 0
 s    3  1.00
  0.1301000000D+02  0.3349872639D-01
  0.1962000000D+01  0.2348008012D+00
  0.4446000000D+00  0.8136829579D+00
 s    1  1.00
  0.1220000000D+00  0.1000000000D+01
 s    1  1.00
  0.2974000000D-01  0.1000000000D+01
 p    1  1.00
  0.7270000000D+00  0.1000000000D+01
 p    1  1.00
  0.1410000000D+00  0.1000000000D+01


[MO]
 Sym=      1.1
 Ene=     -15.5450
 Spin= Alpha
 Occup=    2.000000
1 1.00258314573699
2 0.004694866927520
3 -0.011974926599539
4 -0.005363378528326
5 0.001512908798188
6 -0.001408578025978
7 -0.000988977386327
8 -0.000341884376910
9 0.001014234012310
10 0.001388644662735
11 -0.000314493132480
12 0.000300311326360
13 0.000364056608540
14 0.000620536714744
15 -0.000093511889119
16 -0.000527024825625
17 0.000037949140229
18 -0.000174839800232
19 -0.000044451340266
20 -0.000143983653503
21 0.000153192958331
22 -0.000009209304828
23 -0.000239733823655
24 -0.000135359004868
25 0.000202204195097
26 -0.000922852519558
27 0.005650146476385
28 0.000644598717604
29 0.001080599694550
30 0.000073489857803
31 0.000054917837100
32 -0.001698762067419
33 0.000128824552106
34 -0.000144559321803
35 0.000082877285823
36 0.003385338637950
37 0.000356404810732
38 -0.000212176783407
39 -0.000541389695288
40 0.000145799879417
41 0.000189789088799
42 0.001302509445158
43 -0.000403078458008
44 0.000584405479935
45 0.002462880545922
46 0.000316806443999
47 -0.000013459183924
48 -0.000011590451999
49 -0.000064987891502
50 0.000181277750415
51 -0.000104258789191
52 0.001069247534932
 Sym=      2.1
 Ene=      -1.1810
 Spin= Alpha
 Occup=    2.000000
1 -0.017737054867747
2 0.40463146287159
3 0.17662460791025
4 -0.013036057037645
5 0.10516450579987
6 -0.054457612446696
7 -0.017384768150242
8 -0.068038850211766
9 0.021052016522438
10 -0.018567015915657
11 -0.019473795559181
12 -0.002669399876675
13 -0.011913339087493
14 0.012981415286014
15 -0.004957171879383
16 -0.008024243406631
17 -0.002332878990816
18 -0.002573810322391
19 0.000446081870615
20 -0.028533034479539
21 0.004592759704193
22 0.023940274775346
23 -0.001106905208598
24 0.006276071319271
25 0.002686791358752
26 0.33007124972372
27 0.14700412559704
28 0.018675688371780
29 -0.035573428450081
30 -0.002257140906907
31 0.000403949030398
32 -0.036431307107685
33 -0.005512339679045
34 -0.005069394690942
35 0.19265730378273
36 -0.000505303151108
37 -0.001604190838309
38 0.015944435838863
39 0.031810237152620
40 -0.009758131398235
41 0.001154742518944
42 0.000291945261162
43 -0.003847615857360
44 0.10522852675302
45 -0.055719668912750
46 -0.009509456631477
47 0.010932740740441
48 -0.006850299057308
49 0.022353470734990
50 -0.007767396986683
51 0.003065767244628
52 -0.022789728237767
 Sym=      3.1
 Ene=      -0.6805
 Spin= Alpha
 Occup=    2.000000
1 0.001394337759941
2 -0.037955547133721
3 -0.16085050632375
4 -0.058664977139011
5 0.44660613542790
6 0.19000779054029
7 -0.022834311224573
8 0.10136824358320
9 0.056873318680076
10 0.000610997984904
11 -0.019827807179798
12 -0.005542504473542
13 0.001139800060046
14 0.035381185230734
15 -0.026648722997178
16 -0.008732462233556
17 -0.013566790018126
18 -0.007584959694225
19 0.004647316169936
20 -0.038220780408187
21 0.026742416890973
22 0.011478363517214
23 0.007941609671841
24 -0.004836106281039
25 -0.012694596675218
26 0.38002153662654
27 0.26298918523980
28 0.029252152028156
29 -0.015199708872757
30 0.011062669611514
31 0.001965851085167
32 -0.041272858725317
33 -0.009814624090814
34 -0.000583413198784
35 -0.31238488323116
36 -0.17820991943101
37 -0.013157282063284
38 0.004241444115010
39 -0.025015700500219
40 0.006530257942185
41 -0.018832799321329
42 -0.030286609871785
43 0.008060016926081
44 -0.089967503811886
45 -0.046739686907359
46 -0.002959558212712
47 0.008147256508832
48 0.006748221249016
49 -0.009526271055922
50 -0.006072569397166
51 0.000191316784979
52 -0.008260294878526
 Sym=      4.1
 Ene=      -0.5873
 Spin= Alpha
 Occup=    2.000000
1 0.001411219703180
2 -0.035055213245020
3 -0.13414545051487
4 -0.042329245047258
5 0.14117067198573
6 -0.28789916966731
7 0.30124322355851
8 0.062012289454954
9 -0.13375553671141
10 0.16131422274790
11 0.003416266843558
12 -0.009582397327284
13 0.012402054320369
14 0.007534522328225
15 0.017838619908192
16 -0.025373142236417
17 -0.001528917340925
18 -0.005879322062620
19 -0.001307421318745
20 -0.005016654984323
21 -0.002578882657898
22 0.007595537642222
23 -0.010786199876710
24 0.007374279154164
25 0.000590109098873
26 0.10602913325633
27 0.049562295397801
28 0.004795967724212
29 -0.004621101982505
30 -0.013106256013527
31 0.015895029219925
32 -0.003458961413335
33 0.000180970104237
34 -0.004865958158728
35 0.24632285156091
36 0.11159889874784
37 0.003770280482334
38 0.015062780189536
39 0.017533598068198
40 0.005141799987899
41 0.007710484404269
42 0.008080901061566
43 -0.005549224596430
44 -0.34610490200064
45 -0.16231545126389
46 -0.000554832430561
47 -0.009511144559936
48 -0.000884327957668
49 -0.029919104676877
50 -0.007517663525186
51 0.005103074100956
52 -0.010936122888306
 Sym=      5.1
 Ene=      -0.4332
 Spin= Alpha
 Occup=    2.000000
1 0.000918255161568
2 0.13655647467676
3 0.28514013338775
4 0.080675274766234
5 -0.16787401116748
6 0.36389061101393
7 0.36205381228549
8 -0.10506956133198
9 0.25395288812604
10 0.26711974414614
11 -0.014447626754033
12 0.046907636767268
13 0.053473471464317
14 0.004131571968811
15 -0.003260375678960
16 -0.000871196289851
17 0.009327849039337
18 0.007004509101871
19 -0.010791531725858
20 0.009142919069833
21 -0.003313290513768
22 -0.005829628556065
23 0.004811376595851
24 0.004579142654400
25 -0.015292001562469
26 -0.079422410493775
27 -0.039133593304988
28 -0.013333097070248
29 0.002817390318084
30 0.017903438708217
31 0.017605202218800
32 0.001482561292316
33 0.013581613657074
34 0.010609987846888
35 -0.096667061013903
36 -0.044432553231539
37 -0.004284893513509
38 -0.011757605940862
39 0.001251445589065
40 0.018052734816480
41 -0.009340394152913
42 0.007148291959700
43 0.010964045752823
44 -0.12941571702318
45 -0.065148512489880
46 0.001180369753410
47 -0.010714503343994
48 0.014121514910307
49 -0.005219045233457
50 -0.006809140977708
51 0.011126050485846
52 0.010317752588599
 Sym=      6.1
 Ene=       0.0354
 Spin= Alpha
 Occup=    0.000000
1 0.010907438601819
2 -0.049784781631511
3 -0.42152870744000
4 -2.14188699921596
5 0.012980416560582
6 0.021802603712163
7 0.047944684342191
8 -0.020591779417750
9 0.078257503551727
10 0.093275735495066
11 -0.005770159068689
12 0.12770254050056
13 0.16675224776809
14 -0.002256386581319
15 -0.000569348338571
16 0.002825734919890
17 0.001103051420920
18 0.002609051602827
19 -0.002077126403697
20 0.002066420650477
21 0.004518028407451
22 -0.006584449057928
23 -0.015287103134925
24 -0.012179866859248
25 0.013540350601729
26 0.003695299957397
27 0.51929300422757
28 0.70409254454823
29 -0.000636317668432
30 0.000669495065108
31 0.002070451038125
32 -0.092944560973474
33 0.017822924010783
34 0.011547644122453
35 0.005355813148377
36 0.40229176090882
37 0.75620886563098
38 0.000489594044888
39 -0.002084450520693
40 0.001996646683841
41 0.009737419636824
42 0.073004399935206
43 -0.012426026391109
44 0.016139435368386
45 0.34070076936829
46 0.76664631563217
47 -0.000907263020519
48 0.000836245640846
49 -0.005706620925357
50 0.012055781759204
51 -0.007263506447332
52 0.062392513287924
 Sym=      7.1
 Ene=       0.0596
 Spin= Alpha
 Occup=    0.000000
1 0.001714716108791
2 0.000519797745926
3 -0.067383498341096
4 -0.27208313765815
5 -0.040953182023292
6 -0.035571524710192
7 0.013179143636732
8 -0.13297132327957
9 -0.11266105351007
10 0.029991991001531
11 -0.85577915594906
12 -0.64273959064011
13 0.15870560668837
14 -0.004558706237642
15 0.003082257397349
16 0.001476448840293
17 0.000874149858576
18 -0.000300826972507
19 -0.001179107859441
20 -0.010316935343894
21 0.017912875886511
22 -0.007595940542616
23 0.002751335746554
24 0.011227214369444
25 0.004750214520267
26 -0.012580190962354
27 0.61546343577858
28 3.82624154874161
29 0.002198538387764
30 -0.002462853007379
31 -0.001260293710794
32 -0.14752152088502
33 0.070194669040066
34 -0.005064846631915
35 0.009266810314007
36 -0.45066467701622
37 -3.60286160063195
38 -0.001428309120800
39 0.004463839592561
40 0.001054158843267
41 -0.003921863765713
42 -0.13729584084468
43 0.037308955882053
44 0.000391724704191
45 -0.012842293483368
46 -0.080884026106177
47 -0.001367483116543
48 -0.001519485176623
49 -0.000365842475335
50 0.043571158777978
51 0.039059770179107
52 -0.013355801595963
 Sym=      8.1
 Ene=       0.0596
 Spin= Alpha
 Occup=    0.000000
1 -0.003232300612091
2 -0.004091454400046
3 0.10000016367145
4 0.45966864537555
5 0.029930962722719
6 -0.030683166026762
7 0.060580927970440
8 0.080851405761277
9 -0.074608644026785
10 0.14060079527564
11 0.48242405679410
12 -0.38741434983897
13 0.75506862494756
14 0.001876643757917
15 -0.000905160458626
16 -0.000971483299291
17 0.000264127630400
18 -0.000108225321890
19 0.000045140252578
20 0.007305315662850
21 0.017337338078925
22 -0.024642653741775
23 -0.014034722161930
24 0.006136801392389
25 -0.010193659734912
26 0.009044888964581
27 -0.36152891732402
28 -2.13018375335238
29 -0.001325443422691
30 0.000790181534626
31 0.002912474806976
32 0.084696327627709
33 0.029851642067490
34 -0.082648959617402
35 0.006342912689878
36 -0.18252799546394
37 -1.46722406953484
38 0.000688088803772
39 0.003045360590415
40 0.002866384078319
41 -0.054064632235778
42 -0.048595654407661
43 -0.038910831700190
44 -0.001787855046663
45 0.27958842674023
46 3.35373218756162
47 -0.000290382250349
48 -0.001475928849501
49 -0.007642344549693
50 0.022671475032910
51 -0.007535488491583
52 0.10637888135843
 Sym=      9.1
 Ene=       0.1480
 Spin= Alpha
 Occup=    0.000000
1 -0.016739988660033
2 -0.047597903875210
3 0.35076109573341
4 3.48346153222258
5 -0.041844194333990
6 0.11376881866631
7 0.12716619292682
8 0.034672935896954
9 -0.072182997885575
10 -0.034930456697364
11 0.78554622752816
12 -1.26921221859598
13 -1.02862089796310
14 0.000843801773368
15 -0.001381752440992
16 0.000537950667625
17 0.010009507201405
18 0.006921901713794
19 -0.011745824201384
20 -0.003633997642600
21 0.013280350112586
22 -0.009646352469985
23 -0.049969824202142
24 -0.032322113664611
25 0.030807866458939
26 -0.044982478262414
27 -1.05551230811686
28 -0.80087512843276
29 0.030845125213701
30 0.006637969706319
31 0.006539505137926
32 -0.089558470703393
33 0.20193428840827
34 0.18516481597041
35 -0.011458430216790
36 -1.02333411711583
37 -0.44604491718826
38 -0.010426324665101
39 -0.028552820128132
40 0.009504561819600
41 -0.12260834117970
42 0.018068844396723
43 0.16584247495107
44 0.029832521573414
45 -0.81407045733776
46 -0.24638482858387
47 -0.004409860361018
48 0.000594542537499
49 -0.022563891457421
50 -0.11591523184687
51 0.13966713839039
52 -0.072245989250229
 Sym=     10.1
 Ene=       0.1909
 Spin= Alpha
 Occup=    0.000000
1 -0.041612916498397
2 -0.21357463225891
3 0.71790908793863
4 4.38129847685433
5 0.036665281886397
6 -0.015120657087774
7 0.044735573663894
8 0.30544319275506
9 -0.15456646942604
10 0.084521286489282
11 0.78154669918315
12 -0.057861108633005
13 0.88542714391342
14 -0.003173063825385
15 0.000244479843919
16 0.002928583981465
17 -0.010498636840450
18 -0.003307718379738
19 0.004385424182973
20 0.051408983255604
21 -0.006867319685667
22 -0.044541663569938
23 0.070889524520029
24 0.037721141161974
25 -0.064570748793831
26 -0.077971637209513
27 -2.27396513126422
28 -1.94579812554113
29 0.026678880991704
30 -0.000663129538217
31 0.004055153242990
32 0.60028029814614
33 -0.17291014558741
34 -0.15398143414200
35 -0.006479065802665
36 -0.74507747336824
37 -0.57663757249246
38 -0.003743642900359
39 -0.020519084530620
40 0.012692851924135
41 0.032739303967591
42 -0.32425713560995
43 -0.011848551760980
44 0.11273244524199
45 0.43982182014283
46 0.35520332764662
47 0.001003404972246
48 0.001875660982577
49 -0.006246389651050
50 0.020323980114190
51 -0.021125332567958
52 -0.21360420410450
 Sym=     11.1
 Ene=       0.2011
 Spin= Alpha
 Occup=    0.000000
1 0.002568148797902
2 0.019307065281039
3 0.071034248687896
4 -0.41122987976075
5 -0.096236488677012
6 -0.070885385667359
7 0.003975959945967
8 0.37976084656515
9 0.34981185096128
10 -0.080854587888640
11 2.53944304662309
12 2.06100871269391
13 -0.60599376242268
14 -0.009637660671413
15 0.010576324553789
16 -0.000938663882376
17 0.004943585850248
18 0.000569851675862
19 -0.003403485539157
20 0.10856567235164
21 -0.12655179773099
22 0.017986125379350
23 -0.052257781186011
24 -0.007717142359501
25 0.048099260377418
26 -0.11486251703504
27 -2.54171887583175
28 -3.61539951326579
29 0.008346161985209
30 -0.002092522282647
31 0.000531110011112
32 0.47164708409248
33 -0.10935842336783
34 -0.017770021625369
35 0.11935590220352
36 2.78104986891756
37 3.65264972937084
38 0.018164889093474
39 0.029320565945623
40 -0.012402844065181
41 0.15519967160352
42 0.59288355265196
43 -0.095564877122523
44 -0.020917174842034
45 0.093538548572534
46 0.12513392798107
47 0.007042432097124
48 0.006438623218007
49 -0.001254947148717
50 0.024112636213778
51 -0.025401265748903
52 0.091632830001026
 Sym=     12.1
 Ene=       0.2035
 Spin= Alpha
 Occup=    0.000000
1 0.014426390820470
2 0.078238412979721
3 -0.093857222967255
4 -1.67047136139014
5 -0.073058734281575
6 0.036122906198136
7 -0.11668586767237
8 0.11978131064037
9 -0.087145220336003
10 0.31778673679632
11 1.42571208478087
12 -1.15945087520264
13 2.36178677957490
14 -0.008888384789549
15 -0.009527222676870
16 0.018415607466419
17 0.005469333549153
18 0.005661241413015
19 -0.000616488023732
20 0.067935031099557
21 0.094079892556421
22 -0.16201492365598
23 -0.039928777518298
24 -0.054728084837867
25 0.026833138241977
26 -0.052585823091257
27 -0.62515813611561
28 -1.55242168267177
29 -0.005424952106630
30 0.004926667484574
31 -0.006054385762945
32 0.009855636051792
33 0.11564088461594
34 -0.16039994600434
35 -0.056603628248626
36 -0.36464195481873
37 -0.90564289333129
38 -0.003817552371722
39 -0.001914201432288
40 0.003597078979382
41 -0.077929567654352
42 0.055280365436536
43 -0.095125617277027
44 0.064014309253365
45 2.22517310802686
46 3.17493188272137
47 0.023294780144296
48 -0.018583438682997
49 0.041371776515868
50 0.12659728816988
51 -0.027267473310836
52 0.56099080938090
 Sym=     13.1
 Ene=       0.2599
 Spin= Alpha
 Occup=    0.000000
1 0.021449117864078
2 0.033716027819461
3 -0.52647580676256
4 -2.71956885474623
5 0.072851731478194
6 -0.12148882553247
7 0.24153081222906
8 0.005520864878215
9 -0.003138408519865
10 0.14565232907049
11 -0.16389880889149
12 0.32387142463579
13 -0.16378227498468
14 -0.005261359527169
15 -0.008101552386773
16 0.013362911913942
17 -0.010069443741859
18 0.020529371938321
19 -0.013022840222057
20 0.012932307062439
21 0.010594187416128
22 -0.023526494478567
23 0.004798263125854
24 -0.056051244997426
25 0.040020501638241
26 0.020987253944621
27 0.92109410608229
28 0.86697470060715
29 -0.014820443707229
30 -0.006981990553890
31 0.016800781296651
32 -0.33637199262987
33 -0.031014094257007
34 0.28950879777438
35 -0.020790244464491
36 0.59108625461968
37 1.04072391437701
38 0.011919908011122
39 0.015478581735712
40 0.005264974447481
41 0.18019369103782
42 0.46481234570876
43 0.089429087584122
44 0.17715690258355
45 1.14910435344866
46 -1.09251748413698
47 -0.001348686718710
48 -0.001093995922229
49 0.003578239918192
50 -0.19901571799672
51 0.092616343512306
52 -0.49588879562927
 Sym=     14.1
 Ene=       0.3085
 Spin= Alpha
 Occup=    0.000000
1 -0.009957187223332
2 0.014091805565141
3 0.29952925759878
4 2.11542484756385
5 -0.13690608267781
6 -0.14212967711629
7 0.015479427246376
8 -0.17258170227397
9 -0.12712825835786
10 0.013867064310205
11 0.29025628620493
12 0.042853348830824
13 -0.12425866226142
14 0.015615198657581
15 -0.009131598733770
16 -0.006483599923811
17 -0.009474481604920
18 0.012118977312662
19 0.028527133062623
20 -0.11118166770685
21 0.070970284620680
22 0.040211383086165
23 0.054379074680975
24 -0.062924596961125
25 -0.12868681093451
26 0.026483094172774
27 -0.20939897003585
28 -1.28564561463948
29 0.012610279095142
30 -0.006930187016668
31 0.005854377776092
32 0.42669379598542
33 -0.34637151114169
34 0.087398864284726
35 -0.12704701819301
36 -1.45364888275991
37 0.85358755807774
38 -0.003240141738320
39 -0.011356661519796
40 -0.006489700133071
41 -0.011320411557191
42 0.48035069091633
43 -0.41523214895671
44 -0.039251999896924
45 -0.70124853217669
46 -0.051684101455277
47 -0.007916057935946
48 -0.004329481801272
49 -0.005125543103596
50 -0.28814994131382
51 -0.38691649035894
52 0.013547837313680
 Sym=     15.1
 Ene=       0.3428
 Spin= Alpha
 Occup=    0.000000
1 -0.009241054106823
2 0.014243380965433
3 0.24474077063467
4 1.37238136677935
5 -0.063432408983929
6 -0.066268832858040
7 0.000110383600765
8 -0.11020483941349
9 0.035875652226964
10 0.079436544737574
11 -0.65053114012113
12 -0.47131342874183
13 -0.13096373211754
14 -0.014964899210949
15 -0.000771462465422
16 0.015736361676372
17 -0.022695616220563
18 -0.040767256485730
19 -0.028958804052828
20 0.060781598134746
21 0.024812769392083
22 -0.085594367526829
23 0.15249291012397
24 0.27149597346716
25 0.18506492633260
26 -0.008659654905296
27 -1.22446544191386
28 0.28875291513056
29 -0.008807249826130
30 -0.014591883851174
31 -0.023307885914453
32 0.50832378428368
33 -0.44508703372646
34 -0.82768763972131
35 -0.032504131931041
36 -0.12862216453575
37 -0.30458543589390
38 0.005106212673502
39 -0.012431501115420
40 0.018564815620029
41 0.52159285561134
42 0.74236889305149
43 0.58892552519025
44 -0.016139610377717
45 -0.44774668860097
46 -0.22056185539136
47 0.010989616818237
48 0.009339416457476
49 -0.005595890524515
50 0.69401888116261
51 0.48940633226998
52 -0.044067559340332
 Sym=     16.1
 Ene=       0.3450
 Spin= Alpha
 Occup=    0.000000
1 -0.007007779778707
2 -0.014257284942659
3 0.15571160911091
4 -0.049981886657008
5 -0.023849555814739
6 0.019244140352355
7 -0.048347493536167
8 -0.085578504146878
9 0.11618104343754
10 -0.11802335448015
11 -0.13373992383297
12 0.16747616004670
13 -0.44769641908792
14 -0.002254497666868
15 0.011016771066570
16 -0.008762273399702
17 -0.041385927153071
18 0.030596808968253
19 -0.018169234040243
20 0.031668510282898
21 -0.051110425224426
22 0.019441914941527
23 0.32550674917522
24 -0.23823204278252
25 0.10716686227049
26 0.007760716661570
27 -0.20284263937735
28 0.040896253067468
29 -0.006702879960232
30 -0.032275488096523
31 0.022590204213580
32 0.25721958084174
33 -0.83406419521475
34 0.61887785413584
35 -0.011790410127389
36 -0.63453434186369
37 0.12012242462392
38 0.029310946136957
39 0.000727233888033
40 0.002311637685428
41 0.61904432473642
42 -0.57900149612098
43 0.19065845112813
44 0.022853806085775
45 0.74910863796331
46 -0.13934780246027
47 -0.008332425809950
48 0.003365827661855
49 -0.003742069060681
50 -0.37481357835007
51 0.49876793549470
52 0.86826866978005
 Sym=     17.1
 Ene=       0.3585
 Spin= Alpha
 Occup=    0.000000
1 0.001645654499986
2 0.066974707351307
3 -0.020910335730048
4 2.52967270618230
5 0.074094577029429
6 0.019875345276481
7 0.013873452730013
8 -0.007611823516461
9 0.21836325996319
10 0.14453036530248
11 0.057560653170103
12 0.10315079859060
13 -0.10507414472127
14 -0.028822251201277
15 0.018372768029174
16 0.010449483172103
17 -0.019978371356435
18 0.002848009216198
19 0.025456628234791
20 0.16854744135579
21 -0.11631309703806
22 -0.052234344317732
23 0.12807787063705
24 -0.040522259931211
25 -0.10960788724071
26 -0.067326063687163
27 -0.85113820360118
28 0.13459433683939
29 0.004050035985485
30 -0.017198401918954
31 -0.000887170675892
32 -1.13899437886870
33 -0.40999366015695
34 0.024044828682705
35 -0.026650022797014
36 -1.32058430739659
37 -0.22021166870038
38 0.009513655220496
39 -0.002207105456951
40 -0.005639522269579
41 0.52033807264238
42 -0.44983702852268
43 -0.44958056606735
44 -0.018839489440007
45 -0.88000777375944
46 -0.32908267329969
47 -0.004274986551930
48 0.000621538044306
49 0.002376952012173
50 0.17744013168570
51 -0.38592899517217
52 -0.20293606608062
 Sym=     18.1
 Ene=       0.4722
 Spin= Alpha
 Occup=    0.000000
1 -0.002791287619725
2 0.052687719274823
3 0.48724261266292
4 5.51775502913043
5 0.12808175826496
6 -0.18633952574565
7 -0.14805568630839
8 0.74170575325202
9 -0.84890419029226
10 -0.62329201376666
11 1.17895556594562
12 -1.23367538871398
13 -0.78670484675250
14 0.017481204421227
15 -0.003115927783201
16 -0.014365276638027
17 0.003509932578465
18 -0.002340990700994
19 -0.008578141714452
20 0.048667219972594
21 0.017115859153458
22 -0.065783079126052
23 -0.11136695320736
24 -0.066004515264851
25 0.077335297296138
26 -0.041237791882146
27 -3.26562198276591
28 -0.95284775889657
29 0.041104339783799
30 0.013793599260408
31 0.003955350537668
32 -0.44799314924602
33 0.71089140339734
34 0.45261585289573
35 -0.028508093326167
36 -1.61559279270798
37 -0.32399028038419
38 -0.019308573238673
39 -0.018555613537105
40 0.006594141750266
41 -0.34378020640077
42 0.61500219308190
43 0.36215279545956
44 -0.049245345928254
45 -1.28311826225223
46 -0.086467964305022
47 -0.001023954763601
48 -0.003713731029078
49 0.000607951401388
50 -0.35283244406945
51 0.53090906779078
52 0.27114833844674
 Sym=     19.1
 Ene=       0.5179
 Spin= Alpha
 Occup=    0.000000
1 0.001733086774512
2 -0.001945075490966
3 -0.029160095083689
4 -0.042535043764797
5 0.030287456251967
6 0.055746599928527
7 -0.050963715717641
8 0.20203195684355
9 0.29790690356072
10 -0.24446200001142
11 0.53124313864232
12 1.12833536517706
13 -0.97945748017807
14 0.005176176337338
15 -0.023410956319788
16 0.018234779982450
17 -0.008774825065997
18 -0.006037017615163
19 -0.006484815882302
20 0.044299685218384
21 -0.017811752692605
22 -0.026487932525779
23 0.013875955886061
24 0.053901177194368
25 0.071069513148602
26 -0.002770624819377
27 -0.86553810158850
28 -0.50191284872044
29 0.002907518536137
30 -0.013176667552072
31 0.013625836055696
32 0.071246388926571
33 0.10224450759392
34 -0.56771386839146
35 -0.021331146434612
36 0.86948198971431
37 1.03359518356694
38 -0.005911159424098
39 0.016346460669172
40 -0.027047089611379
41 0.65587600505179
42 0.008029274656554
43 1.64151185728231
44 0.037557957013824
45 0.001959655130069
46 -0.49968218727713
47 0.017762826059300
48 0.031768108427138
49 -0.013244508885870
50 -0.81217633493396
51 -1.35410749521763
52 0.44899273233356
 Sym=     20.1
 Ene=       0.5338
 Spin= Alpha
 Occup=    0.000000
1 0.008781571707992
2 -0.018748078402136
3 -0.40908234805836
4 -0.53136915367778
5 -0.059180155296783
6 -0.010194471054155
7 -0.074591600655212
8 -0.26911405381105
9 -0.16953561278480
10 -0.54819621974969
11 -1.50040949907271
12 0.29200575680059
13 -1.60892904457282
14 -0.024642526059860
15 -0.008906335631396
16 0.033548861691256
17 -0.004301477430301
18 0.033480983571379
19 -0.007311599861090
20 -0.036086757238499
21 0.045024733074971
22 -0.008937975836472
23 0.040370688511604
24 -0.18846426177352
25 0.025834850275520
26 -0.029803436712940
27 0.10619835773195
28 1.36338768408372
29 -0.014691634066060
30 -0.000755454979359
31 -0.003309028304676
32 0.56384606802219
33 -0.15268395855290
34 2.37952772548960
35 -0.029012773967135
36 -0.84325976923097
37 0.033229836351039
38 0.010190374316103
39 0.001653135483693
40 -0.002319711208859
41 0.20414009101042
42 -0.28958209814156
43 0.82151578546749
44 0.12224452197245
45 1.15107107888148
46 -1.12465313382607
47 -0.040245505962094
48 0.017449370787584
49 -0.018460041544959
50 1.58095887065315
51 -0.70082977429238
52 0.95706233493201
 Sym=     21.1
 Ene=       0.5460
 Spin= Alpha
 Occup=    0.000000
1 -0.000691979077013
2 -0.008442042788492
3 -0.19340839197249
4 -0.17757927823946
5 -0.10236960420537
6 -0.089720381879447
7 0.006976403620941
8 -0.68375232389477
9 -0.73641726005259
10 0.036858603981542
11 -1.90052139952774
12 -1.55220094189734
13 0.37319144579799
14 -0.040638207363474
15 0.044998941343026
16 -0.004360733979552
17 0.028189845469904
18 -0.002487957643268
19 -0.008471150321221
20 -0.067333816318215
21 0.036815873054885
22 0.030517943263329
23 -0.10408108230282
24 0.016394238095477
25 -0.031751527189466
26 -0.019286010976734
27 0.84890306031505
28 1.82860615305649
29 -0.023118790165561
30 -0.004858334576067
31 0.003603186143013
32 0.40707263332636
33 2.35830614264724
34 -0.46180778788317
35 0.049902615812971
36 -0.088250216608580
37 -1.67355380804010
38 -0.043248479391008
39 -0.030992122357114
40 0.012366015637333
41 1.81978894037472
42 0.080702122372083
43 -0.31559273993465
44 -0.021539033387207
45 -0.59594113618016
46 -0.067523636489915
47 0.014050348378423
48 0.004954797260902
49 -0.001856047570662
50 -0.034269971537950
51 0.26476246651206
52 -0.28266577890056
 Sym=     22.1
 Ene=       0.5901
 Spin= Alpha
 Occup=    0.000000
1 0.088264809885783
2 -0.010834692018276
3 -2.70167328963318
4 -2.55738689269818
5 0.10116884765763
6 -0.035050461454693
7 0.21001356535725
8 0.86755009069523
9 -0.16697769812433
10 1.39736908102660
11 0.68033690966296
12 -0.25309300941082
13 0.86120068972858
14 0.002778056581323
15 -0.003900227778014
16 0.001122171196691
17 -0.010075270645785
18 0.009754133675996
19 -0.005211564792094
20 0.031391437698871
21 -0.017720521618452
22 -0.013670916080419
23 -0.020944596637914
24 0.023252806880239
25 -0.000540735369570
26 -0.010504492941161
27 -1.89710813874631
28 -0.40304525914594
29 -0.002538430667318
30 0.001342105406393
31 -0.009362782982468
32 0.43149212271652
33 0.25309720363952
34 -0.18517903696491
35 0.016328380533360
36 1.18474401566204
37 0.026397780829426
38 -0.005431164599052
39 0.008501696160326
40 -0.003947341572858
41 0.27981750440939
42 0.61294961174739
43 -0.18479602146322
44 0.25631030812695
45 4.46389776988706
46 1.29296003909949
47 0.000365225977960
48 -0.002787078659591
49 -0.007927586367792
50 0.80061761635928
51 -0.33554431372753
52 2.75170568644862
 Sym=     23.1
 Ene=       0.6287
 Spin= Alpha
 Occup=    0.000000
1 0.011308628643390
2 0.004339307475424
3 -1.14056608235641
4 -0.030220887511756
5 -0.038069710048760
6 -0.095827971080592
7 0.040289149259995
8 -1.87036768785464
9 -1.63660877212549
10 0.47628087539249
11 -1.02752378613045
12 -0.95202694372112
13 0.12795656867990
14 -0.044889351328445
15 0.035241204706596
16 0.009648146621849
17 -0.002909920944328
18 0.000836206727796
19 -0.004095889638038
20 -0.30648640283139
21 0.28794188275773
22 0.018544520073658
23 0.16741139623049
24 0.013333972698849
25 -0.13741603507733
26 0.029674830946067
27 12.9779153978854
28 1.09241063375568
29 -0.019763783273930
30 0.042783531484724
31 0.007080833663955
32 -5.03254456777610
33 -1.45251005879151
34 -0.17820391591711
35 -0.023694242360496
36 -11.5932067565200
37 -1.10516093626038
38 0.015083751363007
39 -0.056112907399229
40 0.005947432700950
41 -2.86501002913378
42 -3.95516645417286
43 1.51318329741997
44 0.088646445477211
45 -0.83983724558766
46 0.082807334010091
47 0.024588179409482
48 0.018471499177970
49 -0.016290492038025
50 -0.99498106875206
51 -0.42234850455748
52 0.14811256044914
 Sym=     24.1
 Ene=       0.6418
 Spin= Alpha
 Occup=    0.000000
1 0.10633219041909
2 0.034322774772566
3 -4.46550303917899
4 -3.11808812970777
5 -0.014512206434731
6 0.10440034044090
7 -0.13505189006686
8 -0.73703446481132
9 1.11034833750419
10 -1.46984309142594
11 -0.43008622201696
12 0.46042298283820
13 -0.90627506503923
14 -0.022950450174044
15 0.001755280119531
16 0.021195170054513
17 0.004384498828879
18 -0.016438860830910
19 0.016096903068195
20 -0.16556256083420
21 -0.090494492040813
22 0.25605705287501
23 -0.035836869260132
24 0.12635576111227
25 -0.058528350021684
26 0.035150602076022
27 6.97639926831982
28 0.84484330072906
29 -0.025286552776144
30 -0.003758716157049
31 0.027653172117648
32 -2.98191670878178