[Molden Format]
[Atoms] (AU)
N    1    7        -0.014088313098       0.084590392416       0.103771151230
H    2    1         1.495211382798       0.021418737520       0.044560362308
H    3    1        -0.591945777547      -1.662166620160       0.535031221194
H    4    1        -0.707517648382       0.465419341072      -2.021424306444
[GTO]
  1 0
 s    8  1.00
     9046.0000000000         0.4625014943
     1357.0000000000         0.8582537942
      309.3000000000         1.4398036033
       87.7300000000         2.1073802907
       28.5600000000         2.4528112129
       10.2100000000         1.8249171308
        3.8380000000         0.5434603116
        0.7466000000         0.0088335638
 s    8  1.00
     9046.0000000000        -0.2016221615
     1357.0000000000        -0.3837127393
      309.3000000000        -0.6278575813
       87.7300000000        -0.9995645316
       28.5600000000        -1.1840306625
       10.2100000000        -1.2827591972
        3.8380000000        -0.4746144262
        0.7466000000         0.6264625369
 s    1  1.00
        0.2248000000         0.2326790717
 s    1  1.00
        0.0612400000         0.0877377471
 p    3  1.00
       13.5500000000         2.1828372526
        2.9170000000         1.7413495278
        0.7973000000         0.8086982955
 p    1  1.00
        0.2185000000         0.2129385976
 p    1  1.00
        0.0561100000         0.0389260579
 d    1  1.00
        0.8170000000         1.1555747805
 d    1  1.00
        0.2300000000         0.1257283364

  2 0
 s    3  1.00
       13.0100000000         0.1635484228
        1.9620000000         0.2774175417
        0.4446000000         0.3157493070
 s    1  1.00
        0.1220000000         0.1471227944
 s    1  1.00
        0.0297400000         0.0510406052
 p    1  1.00
        0.7270000000         0.9568813751
 p    1  1.00
        0.1410000000         0.1231583831

  3 0
 s    3  1.00
       13.0100000000         0.1635484228
        1.9620000000         0.2774175417
        0.4446000000         0.3157493070
 s    1  1.00
        0.1220000000         0.1471227944
 s    1  1.00
        0.0297400000         0.0510406052
 p    1  1.00
        0.7270000000         0.9568813751
 p    1  1.00
        0.1410000000         0.1231583831

  4 0
 s    3  1.00
       13.0100000000         0.1635484228
        1.9620000000         0.2774175417
        0.4446000000         0.3157493070
 s    1  1.00
        0.1220000000         0.1471227944
 s    1  1.00
        0.0297400000         0.0510406052
 p    1  1.00
        0.7270000000         0.9568813751
 p    1  1.00
        0.1410000000         0.1231583831

[5d]
[9g]

[MO]
 Sym= A
 Ene=       -15.5449529627
 Spin= Alpha
 Occup=  2.0000
  1       1.002583146308
  2       0.004694863940
  3      -0.011974843132
  4      -0.005363366057
  5       0.001512940278
  6      -0.001408631563
  7      -0.000988957285
  8      -0.000341888186
  9       0.001014269260
 10       0.001388614921
 11      -0.000314492126
 12       0.000300322414
 13       0.000364045428
 14      -0.000527047366
 15      -0.000174833316
 16      -0.000044469746
 17       0.000412252922
 18       0.000037943500
 19      -0.000009199969
 20      -0.000135354725
 21       0.000202203746
 22      -0.000171573565
 23      -0.000239734301
 24      -0.000922887617
 25       0.005650112966
 26       0.000644596029
 27       0.001080621640
 28       0.000073496187
 29       0.000054916207
 30      -0.001698747303
 31       0.000128817158
 32      -0.000144561286
 33       0.000082855912
 34       0.003385385020
 35       0.000356415112
 36      -0.000212186541
 37      -0.000541408811
 38       0.000145806304
 39       0.000189797429
 40       0.001302524206
 41      -0.000403084535
 42       0.000584402810
 43       0.002462821235
 44       0.000316796936
 45      -0.000013456272
 46      -0.000011593120
 47      -0.000064983209
 48       0.000181271051
 49      -0.000104255488
 50       0.001069219017
 Sym= A
 Ene=        -1.1810234971
 Spin= Alpha
 Occup=  2.0000
  1       0.017736931387
  2      -0.404631841764
  3      -0.176624509079
  4       0.013036072575
  5      -0.105164528903
  6       0.054457515349
  7       0.017384131984
  8       0.068038849917
  9      -0.021052052535
 10       0.018566722399
 11       0.019473787612
 12       0.002669448849
 13       0.011913430567
 14       0.008024272491
 15       0.002573713238
 16      -0.000445985264
 17      -0.010356827429
 18       0.002332971689
 19      -0.023940234774
 20      -0.006276065494
 21      -0.002686775797
 22       0.019125223356
 23       0.001106909511
 24      -0.330071200088
 25      -0.147003570525
 26      -0.018675700330
 27       0.035573461302
 28       0.002257119054
 29      -0.000404038094
 30       0.036431059275
 31       0.005512422457
 32       0.005069415880
 33      -0.192657200436
 34       0.000505442595
 35       0.001604171133
 36      -0.015944415388
 37      -0.031810310020
 38       0.009758062568
 39      -0.001154714675
 40      -0.000291989562
 41       0.003847563426
 42      -0.105228514431
 43       0.055719076358
 44       0.009509482997
 45      -0.010932753210
 46       0.006850361536
 47      -0.022353424751
 48       0.007767187931
 49      -0.003065453034
 50       0.022789572151
 Sym= A
 Ene=        -0.6805019028
 Spin= Alpha
 Occup=  2.0000
  1       0.001394333622
  2      -0.037955585395
  3      -0.160850568116
  4      -0.058665142246
  5       0.446605981038
  6       0.190007344205
  7      -0.022833845943
  8       0.101368198825
  9       0.056873216224
 10       0.000611099890
 11      -0.019827782725
 12      -0.005542506961
 13       0.001139795263
 14      -0.008732547395
 15      -0.007584771483
 16       0.004647417030
 17       0.035813226043
 18      -0.013566979881
 19       0.011478228021
 20      -0.004835753129
 21      -0.012694416029
 22      -0.037506308464
 23       0.007941515825
 24       0.380021742482
 25       0.262989433876
 26       0.029252185570
 27      -0.015199733164
 28       0.011062652796
 29       0.001965853180
 30      -0.041272857156
 31      -0.009814748012
 32      -0.000583481868
 33      -0.312384886937
 34      -0.178210083151
 35      -0.013157255940
 36       0.004241463425
 37      -0.025015679453
 38       0.006530232160
 39      -0.018832725904
 40      -0.030286810287
 41       0.008059970380
 42      -0.089967464531
 43      -0.046739594183
 44      -0.002959532436
 45       0.008147230258
 46       0.006748251714
 47      -0.009526269993
 48      -0.006072607574
 49       0.000191496751
 50      -0.008260358008
 Sym= A
 Ene=        -0.5873380356
 Spin= Alpha
 Occup=  2.0000
  1       0.001411128136
  2      -0.035056609353
  3      -0.134147917339
  4      -0.042329357122
  5       0.141172289050
  6      -0.287902773391
  7       0.301243319576
  8       0.062012774965
  9      -0.133756906925
 10       0.161314154257
 11       0.003416180278
 12      -0.009582220408
 13       0.012402045980
 14      -0.025373176151
 15      -0.005879166324
 16      -0.001307735041
 17      -0.005949159389
 18      -0.001529152397
 19       0.007595810024
 20       0.007374464809
 21       0.000589705190
 22      -0.001407354511
 23      -0.010786257654
 24       0.106029375646
 25       0.049562116466
 26       0.004795960808
 27      -0.004621074124
 28      -0.013106350917
 29       0.015894981632
 30      -0.003458995189
 31       0.000181102154
 32      -0.004866035588
 33       0.246323259334
 34       0.111597910943
 35       0.003770063091
 36       0.015062833329
 37       0.017533681153
 38       0.005141749004
 39       0.007710383352
 40       0.008081092098
 41      -0.005549081707
 42      -0.346102732158
 43      -0.162312196422
 44      -0.000554338957
 45      -0.009511174265
 46      -0.000884291051
 47      -0.029919136559
 48      -0.007517772400
 49       0.005103381498
 50      -0.010936152230
 Sym= A
 Ene=        -0.4331589591
 Spin= Alpha
 Occup=  2.0000
  1       0.000918531403
  2       0.136558020136
  3       0.285142636158
  4       0.080673618569
  5      -0.167873827641
  6       0.363889965967
  7       0.362050106308
  8      -0.105070044376
  9       0.253953211017
 10       0.267117976414
 11      -0.014448692961
 12       0.046908616766
 13       0.053473655204
 14      -0.000871438891
 15       0.007004308507
 16      -0.010791602636
 17       0.004267778365
 18       0.009328074490
 19      -0.005830269729
 20       0.004578744420
 21      -0.015291899218
 22       0.007191437380
 23       0.004811463162
 24      -0.079421820054
 25      -0.039134024076
 26      -0.013333015858
 27       0.002817212847
 28       0.017903342275
 29       0.017605017243
 30       0.001482697202
 31       0.013581742917
 32       0.010609872726
 33      -0.096665397907
 34      -0.044430006634
 35      -0.004284304278
 36      -0.011757527722
 37       0.001251524461
 38       0.018052604484
 39      -0.009340506919
 40       0.007148457934
 41       0.010964407755
 42      -0.129420531308
 43      -0.065155755009
 44       0.001178612697
 45      -0.010714479827
 46       0.014121560154
 47      -0.005218859499
 48      -0.006809465750
 49       0.011126822201
 50       0.010318162211
 Sym= A
 Ene=         0.0354197085
 Spin= Alpha
 Occup=  0.0000
  1       0.010907440324
  2      -0.049784238018
  3      -0.421527798340
  4      -2.141889496623
  5       0.012979625054
  6       0.021804100965
  7       0.047945589419
  8      -0.020592247585
  9       0.078258609615
 10       0.093276561970
 11      -0.005771263359
 12       0.127704564507
 13       0.166753760121
 14       0.002825753262
 15       0.002609068195
 16      -0.002077148365
 17      -0.000973988539
 18       0.001103071645
 19      -0.006584382153
 20      -0.012179859328
 21       0.013540344518
 22      -0.001415361614
 23      -0.015286980434
 24       0.003694857776
 25       0.519293651099
 26       0.704094470452
 27      -0.000636325477
 28       0.000669572945
 29       0.002070492804
 30      -0.092944388710
 31       0.017822767288
 32       0.011547492901
 33       0.005355198310
 34       0.402292593334
 35       0.756209951126
 36       0.000489537936
 37      -0.002084425603
 38       0.001996706119
 39       0.009737506053
 40       0.073004391243
 41      -0.012426166975
 42       0.016139188375
 43       0.340701536312
 44       0.766644437219
 45      -0.000907287512
 46       0.000836289666
 47      -0.005706587825
 48       0.012055800566
 49      -0.007263535943
 50       0.062392515514
 Sym= A
 Ene=         0.0595783898
 Spin= Alpha
 Occup=  0.0000
  1       0.001714234891
  2       0.000519314354
  3      -0.067368375413
  4      -0.272014920878
  5      -0.040948930524
  6      -0.035575769646
  7       0.013188410108
  8      -0.132959315910
  9      -0.112671892972
 10       0.030013145377
 11      -0.855707148241
 12      -0.642796661349
 13       0.158818463329
 14       0.001476311891
 15      -0.000300830773
 16      -0.001179109390
 17      -0.004411281639
 18       0.000874198202
 19      -0.007599589859
 20       0.011228041592
 21       0.004748618141
 22      -0.016299282361
 23       0.002749239299
 24      -0.012578989787
 25       0.615409255380
 26       3.825923563854
 27       0.002198343697
 28      -0.002462724782
 29      -0.001259851098
 30      -0.147508817249
 31       0.070199130869
 32      -0.005076994195
 33       0.009267609632
 34      -0.450691501679
 35      -3.603079823868
 36      -0.001428218720
 37       0.004464307601
 38       0.001054602725
 39      -0.003929845190
 40      -0.137303092166
 41       0.037302946069
 42       0.000391515005
 43      -0.012800226802
 44      -0.080384158920
 45      -0.001367533536
 46      -0.001519691730
 47      -0.000366970645
 48       0.043574529081
 49       0.039058583292
 50      -0.013339941254
 Sym= A
 Ene=         0.0596420631
 Spin= Alpha
 Occup=  0.0000
  1       0.003232548963
  2       0.004091341363
  3      -0.100010437939
  4      -0.459707133329
  5      -0.029936666081
  6       0.030677044725
  7      -0.060579366128
  8      -0.080870965527
  9       0.074591162001
 10      -0.140596686714
 11      -0.482550990216
 12       0.387317300129
 13      -0.755044926272
 14       0.000971673795
 15       0.000108147852
 16      -0.000045280479
 17      -0.001606741300
 18      -0.000263994025
 19       0.024641388520
 20      -0.006135132538
 21       0.010194343501
 22       0.005789526839
 23       0.014035001113
 24      -0.009046434738
 25       0.361620114717
 26       2.130753149852
 27       0.001325768779
 28      -0.000790594322
 29      -0.002912690418
 30      -0.084718340073
 31      -0.029841001537
 32       0.082648205310
 33      -0.006341031852
 34       0.182460267645
 35       1.466685479567
 36      -0.000688271478
 37      -0.003044695919
 38      -0.002866260059
 39       0.054063954089
 40       0.048575041553
 41       0.038916438712
 42       0.001787630993
 43      -0.279590598910
 44      -3.353743674337
 45       0.000290195529
 46       0.001475675074
 47       0.007642291620
 48      -0.022664843144
 49       0.007541074081
 50      -0.106380883600
 Sym= A
 Ene=         0.1479840687
 Spin= Alpha
 Occup=  0.0000
  1       0.016739859187
  2       0.047596974407
  3      -0.350760087216
  4      -3.483447503143
  5       0.041845096434
  6      -0.113770191802
  7      -0.127166546685
  8      -0.034672260842
  9       0.072181877337
 10       0.034929744116
 11      -0.785547787730
 12       1.269214475802
 13       1.028618456950
 14      -0.000537954842
 15      -0.006921912655
 16       0.011745876877
 17      -0.001284949621
 18      -0.010009621615
 19       0.009646551532
 20       0.032322448475
 21      -0.030808290781
 22       0.009765622706
 23       0.049970241757
 24       0.044982803863
 25       1.055509107521
 26       0.800873821180
 27      -0.030845082670
 28      -0.006638042047
 29      -0.006539518377
 30       0.089559363097
 31      -0.201935655923
 32      -0.185165161303
 33       0.011458631714
 34       1.023331186646
 35       0.446046508685
 36       0.010426373360
 37       0.028552771275
 38      -0.009504588201
 39       0.122608801672
 40      -0.018069844359
 41      -0.165842583500
 42      -0.029831302280
 43       0.814069007512
 44       0.246375600140
 45       0.004409855263
 46      -0.000594536633
 47       0.022563854908
 48       0.115915174869
 49      -0.139667675045
 50       0.072243822485
 Sym= A
 Ene=         0.1909113042
 Spin= Alpha
 Occup=  0.0000
  1       0.041612973095
  2       0.213574182277
  3      -0.717910359046
  4      -4.381312069787
  5      -0.036664621112
  6       0.015118957330
  7      -0.044737082920
  8      -0.305442327432
  9       0.154566590599
 10      -0.084521643052
 11      -0.781545085224
 12       0.057866519244
 13      -0.885422874011
 14      -0.002928604464
 15       0.003307665283
 16      -0.004385369529
 17       0.001973061687
 18       0.010498588943
 19       0.044541373880
 20      -0.037721051911
 21       0.064570674496
 22      -0.033645669849
 23      -0.070889328799
 24       0.077971980398
 25       2.273963935015
 26       1.945795358509
 27      -0.026679007268
 28       0.000663005469
 29      -0.004055218237
 30      -0.600278125268
 31       0.172908835150
 32       0.153980463197
 33       0.006480048639
 34       0.745085221117
 35       0.576641206456
 36       0.003743779001
 37       0.020519217198
 38      -0.012692959742
 39      -0.032738418786
 40       0.324256694329
 41       0.011847987190
 42      -0.112732764396
 43      -0.439816807702
 44      -0.355198387822
 45      -0.001003331613
 46      -0.001875711997
 47       0.006246474690
 48      -0.020323085102
 49       0.021124852473
 50       0.213605343386
 Sym= A
 Ene=         0.2010599228
 Spin= Alpha
 Occup=  0.0000
  1       0.002568019395
  2       0.019306362501
  3       0.071035554946
  4      -0.411214928386
  5      -0.096235921649
  6      -0.070885721542
  7       0.003976771006
  8       0.379760426791
  9       0.349812135808
 10      -0.080856565993
 11       2.539435063640
 12       2.061016755296
 13      -0.606007725656
 14      -0.000938770298
 15       0.000569825888
 16      -0.003403473298
 17      -0.011670557197
 18       0.004943531785
 19       0.017987109225
 20      -0.007716926832
 21       0.048098866379
 22       0.135745331103
 23      -0.052257453034
 24      -0.114862242053
 25      -2.541716664599
 26      -3.615392151299
 27       0.008346231316
 28      -0.002092558143
 29       0.000531154625
 30       0.471647220901
 31      -0.109359564979
 32      -0.017768710513
 33       0.119356231162
 34       2.781050680271
 35       3.652655922242
 36       0.018164925972
 37       0.029320581140
 38      -0.012402849700
 39       0.155200078782
 40       0.592882432527
 41      -0.095564445222
 42      -0.020917325531
 43       0.093525395799
 44       0.125113593867
 45       0.007042279235
 46       0.006438740815
 47      -0.001255206410
 48       0.024111465569
 49      -0.025401458576
 50       0.091628894379
 Sym= A
 Ene=         0.2034928081
 Spin= Alpha
 Occup=  0.0000
  1       0.014426401984
  2       0.078238194129
  3      -0.093857089052
  4      -1.670475457590
  5      -0.073058849905
  6       0.036121567243
  7      -0.116686660030
  8       0.119784044651
  9      -0.087143369559
 10       0.317785877044
 11       1.425727459907
 12      -1.159435584040
 13       2.361786182634
 14       0.018415537352
 15       0.005661156823
 16      -0.000616420383
 17       0.000368727158
 18       0.005469357202
 19      -0.162014849198
 20      -0.054727856889
 21       0.026833130150
 22      -0.015093848082
 23      -0.039929094749
 24      -0.052586202758
 25      -0.625173929248
 26      -1.552445813755
 27      -0.005424936671
 28       0.004926601489
 29      -0.006054436197
 30       0.009859316666
 31       0.115639737400
 32      -0.160401216298
 33      -0.056602232911
 34      -0.364622454599
 35      -0.905621235435
 36      -0.003817389606
 37      -0.001913985635
 38       0.003596950634
 39      -0.077928544702
 40       0.055283165667
 41      -0.095126963806
 42       0.064013638875
 43       2.225173674257
 44       3.174935849290
 45       0.023294844464
 46      -0.018583409637
 47       0.041371801635
 48       0.126597948250
 49      -0.027268272564
 50       0.560991201868
 Sym= A
 Ene=         0.2598933301
 Spin= Alpha
 Occup=  0.0000
  1       0.021449134197
  2       0.033716971528
  3      -0.526474162103
  4      -2.719561609078
  5       0.072850311906
  6      -0.121486738999
  7       0.241531728772
  8       0.005520163695
  9      -0.003138109477
 10       0.145653613916
 11      -0.163896272697
 12       0.323865450286
 13      -0.163781440818
 14       0.013363009671
 15       0.020529448595
 16      -0.013022925241
 17       0.001639816636
 18      -0.010069366682
 19      -0.023526437386
 20      -0.056051315244
 21       0.040020654313
 22       0.001349705455
 23       0.004798042857
 24       0.020986239104
 25       0.921092018153
 26       0.866972560941
 27      -0.014820364715
 28      -0.006981818780
 29       0.016800825377
 30      -0.336373138516
 31      -0.031012525918
 32       0.289508613169
 33      -0.020791805032
 34       0.591079567077
 35       1.040721782201
 36       0.011919748263
 37       0.015478497823
 38       0.005265082629
 39       0.180192613596
 40       0.464813819535
 41       0.089428996113
 42       0.177157335503
 43       1.149103589837
 44      -1.092514278740
 45      -0.001348719713
 46      -0.001093937613
 47       0.003578269260
 48      -0.199016219977
 49       0.092617336695
 50      -0.495887272513
 Sym= A
 Ene=         0.3084973746
 Spin= Alpha
 Occup=  0.0000
  1       0.009957194245
  2      -0.014091945756
  3      -0.299529096249
  4      -2.115426404091
  5       0.136906406400
  6       0.142129302191
  7      -0.015479568857
  8       0.172582248179
  9       0.127128328220
 10      -0.013867145774
 11      -0.290256015188
 12      -0.042851669826
 13       0.124258388802
 14       0.006483620819
 15      -0.012118994150
 16      -0.028527143859
 17      -0.014287485458
 18       0.009474423233
 19      -0.040211452331
 20       0.062924810536
 21       0.128687063007
 22       0.105165469823
 23      -0.054378804762
 24      -0.026482858969
 25       0.209397512167
 26       1.285645024131
 27      -0.012610298048
 28       0.006930172120
 29      -0.005854405121
 30      -0.426692545693
 31       0.346370596930
 32      -0.087399511475
 33       0.127047018723
 34       1.453651021093
 35      -0.853585376400
 36       0.003240182513
 37       0.011356690199
 38       0.006489710104
 39       0.011320844907
 40      -0.480349734712
 41       0.415233364837
 42       0.039252176075
 43       0.701250301042
 44       0.051682480447
 45       0.007916074966
 46       0.004329490879
 47       0.005125571433
 48       0.288149625471
 49       0.386916636760
 50      -0.013548511263
 Sym= A
 Ene=         0.3428154462
 Spin= Alpha
 Occup=  0.0000
  1       0.009241078382
  2      -0.014243295373
  3      -0.244741880315
  4      -1.372382944767
  5       0.063432527495
  6       0.066268927320
  7      -0.000110188046
  8       0.110203805653
  9      -0.035876015814
 10      -0.079436342590
 11       0.650529502017
 12       0.471313053536
 13       0.130963628735
 14      -0.015736345658
 15       0.040767254606
 16       0.028958777067
 17       0.008194531672
 18       0.022695598950
 19       0.085594266628
 20      -0.271495808806
 21      -0.185064825950
 22      -0.020766568655
 23      -0.152492597684
 24       0.008659706007
 25       1.224472356683
 26      -0.288750366506
 27       0.008807173568
 28       0.014591907361
 29       0.023307908744
 30      -0.508326963312
 31       0.445086031980
 32       0.827687632817
 33       0.032504266728
 34       0.128617686332
 35       0.304584255071
 36      -0.005106184988
 37       0.012431464821
 38      -0.018564808603
 39      -0.521593596079
 40      -0.742370850149
 41      -0.588924731001
 42       0.016139592661
 43       0.447746137980
 44       0.220561004058
 45      -0.010989626732
 46      -0.009339398437
 47       0.005595889136
 48      -0.694019305477
 49      -0.489406042456
 50       0.044067096863
 Sym= A
 Ene=         0.3450289015
 Spin= Alpha
 Occup=  0.0000
  1       0.007007777260
  2       0.014257164288
  3      -0.155712925768
  4       0.049976246093
  5       0.023849489138
  6      -0.019243790333
  7       0.048347817244
  8       0.085578053374
  9      -0.116180600739
 10       0.118022502787
 11       0.133740047222
 12      -0.167476402256
 13       0.447695578052
 14       0.008762259775
 15      -0.030596806689
 16       0.018169190498
 17       0.007662233138
 18       0.041385974193
 19      -0.019441395184
 20       0.238232195306
 21      -0.107166698586
 22      -0.047792736966
 23      -0.325507299411
 24      -0.007760544545
 25       0.202847670335
 26      -0.040896198260
 27       0.006702895137
 28       0.032275542170
 29      -0.022590151760
 30      -0.257219315278
 31       0.834065635725
 32      -0.618878439213
 33       0.011790315312
 34       0.634539104774
 35      -0.120121868564
 36      -0.029310972042
 37      -0.000727205531
 38      -0.002311591197
 39      -0.619045646596
 40       0.579003128637
 41      -0.190658613693
 42      -0.022853703284
 43      -0.749112025644
 44       0.139348554123
 45       0.008332390997
 46      -0.003365807875
 47       0.003741928238
 48       0.374812137819
 49      -0.498766436133
 50      -0.868269330215
 Sym= A
 Ene=         0.3585269637
 Spin= Alpha
 Occup=  0.0000
  1       0.001645638058
  2       0.066974635740
  3      -0.020910316675
  4       2.529671927394
  5       0.074094764824
  6       0.019875361927
  7       0.013873934928
  8      -0.007612118191
  9       0.218363306938
 10       0.144530723488
 11       0.057560103023
 12       0.103150072993
 13      -0.105073811359
 14       0.010449486877
 15       0.002847944144
 16       0.025456620417
 17      -0.027248052330
 18      -0.019978307531
 19      -0.052234254862
 20      -0.040521479719
 21      -0.109607909589
 22       0.164464137507
 23       0.128077238880
 24      -0.067326081827
 25      -0.851135283988
 26       0.134595604778
 27       0.004050048543
 28      -0.017198353927
 29      -0.000887205196
 30      -1.138995626533
 31      -0.409992362155
 32       0.024042653717
 33      -0.026649895296
 34      -1.320583208742
 35      -0.220212591019
 36       0.009513643626
 37      -0.002207128904
 38      -0.005639510542
 39       0.520336728793
 40      -0.449836357385
 41      -0.449580416243
 42      -0.018839656045
 43      -0.880011046915
 44      -0.329082904906
 45      -0.004274967521
 46       0.000621517020
 47       0.002376864027
 48       0.177440490941
 49      -0.385929343172
 50      -0.202938527916
 Sym= A
 Ene=         0.4721650364
 Spin= Alpha
 Occup=  0.0000
  1       0.002791137015
  2      -0.052687797758
  3      -0.487239277878
  4      -5.517752809961
  5      -0.128082187540
  6       0.186340066619
  7       0.148056036545
  8      -0.741707389050
  9       0.848905574686
 10       0.623289358367
 11      -1.178957865231
 12       1.233677666433
 13       0.786700050835
 14       0.014365348293
 15       0.002340998048
 16       0.008578115804
 17      -0.011891751121
 18      -0.003509867253
 19       0.065782916464
 20       0.066004162848
 21      -0.077335132649
 22      -0.018216299853
 23       0.111367004844
 24       0.041237654809
 25       3.265624069414
 26       0.952849656280
 27      -0.041104329155
 28      -0.013793611225
 29      -0.003955278941
 30       0.447993522407
 31      -0.710891210789
 32      -0.452613167365
 33       0.028508190911
 34       1.615595356365
 35       0.323992829242
 36       0.019308570332
 37       0.018555583233
 38      -0.006594107278
 39       0.343781608013
 40      -0.615001002184
 41      -0.362150586984
 42       0.049244525108
 43       1.283111387272
 44       0.086462031876
 45       0.001023889822
 46       0.003713813317
 47      -0.000608023465
 48       0.352831431176
 49      -0.530909788576
 50      -0.271153871319
 Sym= A
 Ene=         0.5178803855
 Spin= Alpha
 Occup=  0.0000
  1       0.001733109652
  2      -0.001945131882
  3      -0.029161164231
  4      -0.042531268686
  5       0.030287625615
  6       0.055746276469
  7      -0.050963904752
  8       0.202032743410
  9       0.297906893265
 10      -0.244464168484
 11       0.531242792150
 12       1.128334832325
 13      -0.979459958078
 14       0.018234795251
 15      -0.006036998150
 16      -0.006484786856
 17       0.016504806398
 18      -0.008774820201
 19      -0.026487646699
 20       0.053901096163
 21       0.071069478427
 22       0.035859886914
 23       0.013875749899
 24      -0.002770610396
 25      -0.865542284356
 26      -0.501912503694
 27       0.002907561367
 28      -0.013176690683
 29       0.013625880642
 30       0.071247319864
 31       0.102246038359
 32      -0.567712036193
 33      -0.021331095467
 34       0.869486347208
 35       1.033595682648
 36      -0.005911163857
 37       0.016346482344
 38      -0.027047081213
 39       0.655877185478
 40       0.008032785536
 41       1.641511458598
 42       0.037557990216
 43       0.001955480242
 44      -0.499683754768
 45       0.017762776058
 46       0.031768105746
 47      -0.013244590716
 48      -0.812176101566
 49      -1.354106914124
 50       0.448991789935
 Sym= A
 Ene=         0.5337958751
 Spin= Alpha
 Occup=  0.0000
  1       0.008781676714
  2      -0.018747997709
  3      -0.409087267399
  4      -0.531367136997
  5      -0.059179971823
  6      -0.010194765252
  7      -0.074591530314
  8      -0.269114716509
  9      -0.169536717196
 10      -0.548197415374
 11      -1.500409801303
 12       0.292003184773
 13      -1.608929439351
 14       0.033548851890
 15       0.033480951978
 16      -0.007311577944
 17      -0.009085347806
 18      -0.004301470025
 19      -0.008937417637
 20      -0.188463870908
 21       0.025834777785
 22      -0.046829654653
 23       0.040370294467
 24      -0.029803385355
 25       0.106206553626
 26       1.363388857147
 27      -0.014691655786
 28      -0.000755416765
 29      -0.003309008932
 30       0.563840691126
 31      -0.152682394699
 32       2.379527367555
 33      -0.029012702140
 34      -0.843261198163
 35       0.033228454041
 36       0.010190389351
 37       0.001653123473
 38      -0.002319652687
 39       0.204138940081
 40      -0.289580484052
 41       0.821514175446
 42       0.122244706787
 43       1.151063967041
 44      -1.124652926794
 45      -0.040245519319
 46       0.017449341482
 47      -0.018460141572
 48       1.580957755461
 49      -0.700827321239
 50       0.957060538216
 Sym= A
 Ene=         0.5459874192
 Spin= Alpha
 Occup=  0.0000
  1       0.000691915957
  2       0.008441939030
  3       0.193410419326
  4       0.177580017083
  5       0.102369510980
  6       0.089720377608
  7      -0.006976537546
  8       0.683752900545
  9       0.736418452943
 10      -0.036859942802
 11       1.900521090476
 12       1.552202127698
 13      -0.373192691838
 14       0.004360733539
 15       0.002487979789
 16       0.008471186450
 17       0.049442685323
 18      -0.028189851299
 19      -0.030517939952
 20      -0.016394395196
 21       0.031751567586
 22       0.060131046450
 23       0.104080972234
 24       0.019285985665
 25      -0.848909785067
 26      -1.828606121474
 27       0.023118806919
 28       0.004858289310
 29      -0.003603166205
 30      -0.407069428589
 31      -2.358305470872
 32       0.461808619795
 33      -0.049902594233
 34       0.088257279865
 35       1.673554921443
 36       0.043248459596
 37       0.030992153868
 38      -0.012366030695
 39      -1.819786947019
 40      -0.080699730948